/*--------------------------------*- C++ -*----------------------------------*\
  =========                 |
  \\      /  F ield         | OpenFOAM: The Open Source CFD Toolbox
   \\    /   O peration     | Website:  https://openfoam.org
    \\  /    A nd           | Version:  8
     \\/     M anipulation  |
\*---------------------------------------------------------------------------*/
FoamFile
{
    version     2.0;
    format      ascii;
    class       volScalarField;
    location    "0";
    object      T;
}
// * * * * * * * * * * * * * * * * * * * * * * * * * * * * * * * * * * * * * //

dimensions      [0 0 0 1 0 0 0];

internalField   uniform 300;

boundaryField
{
    outlet
    {
        type            zeroGradient;
    }
    inlet
    {
        type            uniformFixedValue;
        uniformValue    table
        (
            (0     300)    
            (4000  966)
        );
    }
    wall
    {
        type            uniformFixedValue;
        uniformValue    table
        (
            (0     300)    
            (4000  966)
        );
    }
}


// ************************************************************************* //
