/*--------------------------------*- C++ -*----------------------------------*\
  =========                 |
  \\      /  F ield         | OpenFOAM: The Open Source CFD Toolbox
   \\    /   O peration     | Website:  https://openfoam.org
    \\  /    A nd           | Version:  8
     \\/     M anipulation  |
\*---------------------------------------------------------------------------*/
FoamFile
{
    version     2.0;
    format      ascii;
    class       volScalarField;
    location    "0";
    object      T;
}
// * * * * * * * * * * * * * * * * * * * * * * * * * * * * * * * * * * * * * //

dimensions      [0 0 0 1 0 0 0];

internalField   nonuniform List<scalar> 
40000
(
498.62567
497.37363
496.36837
495.69596
495.29444
495.08601
495.00546
495.00534
495.05355
495.12923
495.2192
495.3153
495.4126
495.50823
495.60061
495.68894
495.77295
495.85263
495.92812
495.99966
496.06751
496.13193
496.19318
496.25148
496.30706
496.36011
496.41082
496.45935
496.50585
496.55044
496.59327
496.63443
496.67404
496.71219
496.74897
496.78445
496.8187
496.85181
496.88382
496.91481
496.94481
496.97389
497.00208
497.02944
497.056
497.08179
497.10687
497.13125
497.15497
497.17806
497.20055
497.22246
497.24381
497.26464
497.28496
497.30478
497.32414
497.34305
497.36153
497.37959
497.39725
497.41453
497.43143
497.44798
497.46418
497.48004
497.49559
497.51083
497.52576
497.54041
497.55478
497.56888
497.58272
497.5963
497.60964
497.62275
497.63563
497.64828
497.66072
497.67296
497.68499
497.69683
497.70848
497.71995
497.73124
497.74235
497.7533
497.76407
497.77467
497.78509
497.79531
497.80531
497.81504
497.82443
497.83336
497.84168
497.84912
497.85534
497.85991
497.86236
498.62567
497.37363
496.36837
495.69596
495.29444
495.08601
495.00546
495.00534
495.05355
495.12923
495.2192
495.3153
495.4126
495.50823
495.60061
495.68894
495.77295
495.85263
495.92812
495.99966
496.06751
496.13193
496.19318
496.25148
496.30706
496.36011
496.41082
496.45935
496.50585
496.55044
496.59327
496.63443
496.67404
496.71219
496.74897
496.78445
496.8187
496.85181
496.88382
496.91481
496.94481
496.97389
497.00208
497.02944
497.056
497.08179
497.10687
497.13125
497.15497
497.17806
497.20055
497.22246
497.24381
497.26464
497.28496
497.30478
497.32414
497.34305
497.36153
497.37959
497.39725
497.41453
497.43143
497.44798
497.46418
497.48004
497.49559
497.51083
497.52576
497.54041
497.55478
497.56888
497.58272
497.5963
497.60964
497.62275
497.63563
497.64828
497.66072
497.67296
497.68499
497.69683
497.70848
497.71995
497.73124
497.74235
497.7533
497.76407
497.77467
497.78509
497.79531
497.80531
497.81504
497.82443
497.83336
497.84168
497.84912
497.85534
497.85991
497.86236
498.62567
497.37363
496.36837
495.69596
495.29444
495.08601
495.00546
495.00534
495.05355
495.12923
495.2192
495.3153
495.4126
495.50823
495.60061
495.68894
495.77295
495.85263
495.92812
495.99966
496.06751
496.13193
496.19318
496.25148
496.30706
496.36011
496.41082
496.45935
496.50585
496.55044
496.59327
496.63443
496.67404
496.71219
496.74897
496.78445
496.8187
496.85181
496.88382
496.91481
496.94481
496.97389
497.00208
497.02944
497.056
497.08179
497.10687
497.13125
497.15497
497.17806
497.20055
497.22246
497.24381
497.26464
497.28496
497.30478
497.32414
497.34305
497.36153
497.37959
497.39725
497.41453
497.43143
497.44798
497.46418
497.48004
497.49559
497.51083
497.52576
497.54041
497.55478
497.56888
497.58272
497.5963
497.60964
497.62275
497.63563
497.64828
497.66072
497.67296
497.68499
497.69683
497.70848
497.71995
497.73124
497.74235
497.7533
497.76407
497.77467
497.78509
497.79531
497.80531
497.81504
497.82443
497.83336
497.84168
497.84912
497.85534
497.85991
497.86236
498.62567
497.37363
496.36837
495.69596
495.29444
495.08601
495.00546
495.00534
495.05355
495.12923
495.2192
495.3153
495.4126
495.50823
495.60061
495.68894
495.77295
495.85263
495.92812
495.99966
496.06751
496.13193
496.19318
496.25148
496.30706
496.36011
496.41082
496.45935
496.50585
496.55044
496.59327
496.63443
496.67404
496.71219
496.74897
496.78445
496.8187
496.85181
496.88382
496.91481
496.94481
496.97389
497.00208
497.02944
497.056
497.08179
497.10687
497.13125
497.15497
497.17806
497.20055
497.22246
497.24381
497.26464
497.28496
497.30478
497.32414
497.34305
497.36153
497.37959
497.39725
497.41453
497.43143
497.44798
497.46418
497.48004
497.49559
497.51083
497.52576
497.54041
497.55478
497.56888
497.58272
497.5963
497.60964
497.62275
497.63563
497.64828
497.66072
497.67296
497.68499
497.69683
497.70848
497.71995
497.73124
497.74235
497.7533
497.76407
497.77467
497.78509
497.79531
497.80531
497.81504
497.82443
497.83336
497.84168
497.84912
497.85534
497.85991
497.86236
495.81223
492.00678
488.96603
486.94348
485.74314
485.12539
484.89168
484.89864
485.04969
485.28235
485.55717
485.84981
486.14557
486.43591
486.71616
486.98402
487.23867
487.48013
487.70887
487.9256
488.13112
488.32623
488.51171
488.68827
488.85657
489.01722
489.17075
489.31766
489.45841
489.59341
489.72303
489.84762
489.96749
490.08294
490.19422
490.30157
490.40523
490.50539
490.60225
490.69598
490.78674
490.87469
490.95997
491.04272
491.12304
491.20106
491.27689
491.35062
491.42235
491.49218
491.56017
491.62641
491.69098
491.75394
491.81537
491.87531
491.93384
491.991
492.04686
492.10145
492.15483
492.20704
492.25813
492.30814
492.3571
492.40505
492.45203
492.49808
492.54322
492.58748
492.6309
492.6735
492.71531
492.75636
492.79667
492.83626
492.87516
492.9134
492.95099
492.98795
493.0243
493.06006
493.09526
493.1299
493.164
493.19757
493.23063
493.26317
493.29518
493.32665
493.35753
493.38773
493.41714
493.44552
493.47255
493.49772
493.52027
493.53917
493.55308
493.56057
495.81223
492.00678
488.96603
486.94348
485.74314
485.12539
484.89168
484.89864
485.04969
485.28235
485.55717
485.84981
486.14557
486.43591
486.71616
486.98402
487.23867
487.48013
487.70887
487.9256
488.13112
488.32623
488.51171
488.68827
488.85657
489.01722
489.17075
489.31766
489.45841
489.59341
489.72303
489.84762
489.96749
490.08294
490.19422
490.30157
490.40523
490.50539
490.60225
490.69598
490.78674
490.87469
490.95997
491.04272
491.12304
491.20106
491.27689
491.35062
491.42235
491.49218
491.56017
491.62641
491.69098
491.75394
491.81537
491.87531
491.93384
491.991
492.04686
492.10145
492.15483
492.20704
492.25813
492.30814
492.3571
492.40505
492.45203
492.49808
492.54322
492.58748
492.6309
492.6735
492.71531
492.75636
492.79667
492.83626
492.87516
492.9134
492.95099
492.98795
493.0243
493.06006
493.09526
493.1299
493.164
493.19757
493.23063
493.26317
493.29518
493.32665
493.35753
493.38773
493.41714
493.44552
493.47255
493.49772
493.52027
493.53917
493.55308
493.56057
495.81223
492.00678
488.96603
486.94348
485.74314
485.12539
484.89168
484.89864
485.04969
485.28235
485.55717
485.84981
486.14557
486.43591
486.71616
486.98402
487.23867
487.48013
487.70887
487.9256
488.13112
488.32623
488.51171
488.68827
488.85657
489.01722
489.17075
489.31766
489.45841
489.59341
489.72303
489.84762
489.96749
490.08294
490.19422
490.30157
490.40523
490.50539
490.60225
490.69598
490.78674
490.87469
490.95997
491.04272
491.12304
491.20106
491.27689
491.35062
491.42235
491.49218
491.56017
491.62641
491.69098
491.75394
491.81537
491.87531
491.93384
491.991
492.04686
492.10145
492.15483
492.20704
492.25813
492.30814
492.3571
492.40505
492.45203
492.49808
492.54322
492.58748
492.6309
492.6735
492.71531
492.75636
492.79667
492.83626
492.87516
492.9134
492.95099
492.98795
493.0243
493.06006
493.09526
493.1299
493.164
493.19757
493.23063
493.26317
493.29518
493.32665
493.35753
493.38773
493.41714
493.44552
493.47255
493.49772
493.52027
493.53917
493.55308
493.56057
495.81223
492.00678
488.96603
486.94348
485.74314
485.12539
484.89168
484.89864
485.04969
485.28235
485.55717
485.84981
486.14557
486.43591
486.71616
486.98402
487.23867
487.48013
487.70887
487.9256
488.13112
488.32623
488.51171
488.68827
488.85657
489.01722
489.17075
489.31766
489.45841
489.59341
489.72303
489.84762
489.96749
490.08294
490.19422
490.30157
490.40523
490.50539
490.60225
490.69598
490.78674
490.87469
490.95997
491.04272
491.12304
491.20106
491.27689
491.35062
491.42235
491.49218
491.56017
491.62641
491.69098
491.75394
491.81537
491.87531
491.93384
491.991
492.04686
492.10145
492.15483
492.20704
492.25813
492.30814
492.3571
492.40505
492.45203
492.49808
492.54322
492.58748
492.6309
492.6735
492.71531
492.75636
492.79667
492.83626
492.87516
492.9134
492.95099
492.98795
493.0243
493.06006
493.09526
493.1299
493.164
493.19757
493.23063
493.26317
493.29518
493.32665
493.35753
493.38773
493.41714
493.44552
493.47255
493.49772
493.52027
493.53917
493.55308
493.56057
492.81171
486.35013
481.25998
477.92354
475.97229
474.98715
474.63179
474.66787
474.93672
475.33637
475.80281
476.29662
476.79411
477.28157
477.75154
478.20044
478.62704
479.03144
479.4145
479.77746
480.12165
480.44843
480.75909
481.05483
481.33675
481.60586
481.86305
482.10918
482.34499
482.57116
482.78834
482.99709
483.19795
483.39139
483.57785
483.75774
483.93143
484.09927
484.26158
484.41864
484.57074
484.71813
484.86104
484.9997
485.1343
485.26505
485.39212
485.51569
485.6359
485.75291
485.86685
485.97787
486.08607
486.19159
486.29452
486.39498
486.49306
486.58886
486.68246
486.77395
486.86341
486.95091
487.03653
487.12033
487.20238
487.28274
487.36147
487.43863
487.51428
487.58845
487.66121
487.7326
487.80267
487.87146
487.93901
488.00536
488.07055
488.13462
488.19761
488.25955
488.32047
488.3804
488.43938
488.49742
488.55457
488.61083
488.66622
488.72075
488.7744
488.82714
488.8789
488.92955
488.97888
489.02652
489.07195
489.11431
489.15237
489.18439
489.20808
489.22092
492.81171
486.35013
481.25998
477.92354
475.97229
474.98715
474.63179
474.66787
474.93672
475.33637
475.80281
476.29662
476.79411
477.28157
477.75154
478.20044
478.62704
479.03144
479.4145
479.77746
480.12165
480.44843
480.75909
481.05483
481.33675
481.60586
481.86305
482.10918
482.34499
482.57116
482.78834
482.99709
483.19795
483.39139
483.57785
483.75774
483.93143
484.09927
484.26158
484.41864
484.57074
484.71813
484.86104
484.9997
485.1343
485.26505
485.39212
485.51569
485.6359
485.75291
485.86685
485.97787
486.08607
486.19159
486.29452
486.39498
486.49306
486.58886
486.68246
486.77395
486.86341
486.95091
487.03653
487.12033
487.20238
487.28274
487.36147
487.43863
487.51428
487.58845
487.66121
487.7326
487.80267
487.87146
487.93901
488.00536
488.07055
488.13462
488.19761
488.25955
488.32047
488.3804
488.43938
488.49742
488.55457
488.61083
488.66622
488.72075
488.7744
488.82714
488.8789
488.92955
488.97888
489.02652
489.07195
489.11431
489.15237
489.18439
489.20808
489.22092
492.81171
486.35013
481.25998
477.92354
475.97229
474.98715
474.63179
474.66787
474.93672
475.33637
475.80281
476.29662
476.79411
477.28157
477.75154
478.20044
478.62704
479.03144
479.4145
479.77746
480.12165
480.44843
480.75909
481.05483
481.33675
481.60586
481.86305
482.10918
482.34499
482.57116
482.78834
482.99709
483.19795
483.39139
483.57785
483.75774
483.93143
484.09927
484.26158
484.41864
484.57074
484.71813
484.86104
484.9997
485.1343
485.26505
485.39212
485.51569
485.6359
485.75291
485.86685
485.97787
486.08607
486.19159
486.29452
486.39498
486.49306
486.58886
486.68246
486.77395
486.86341
486.95091
487.03653
487.12033
487.20238
487.28274
487.36147
487.43863
487.51428
487.58845
487.66121
487.7326
487.80267
487.87146
487.93901
488.00536
488.07055
488.13462
488.19761
488.25955
488.32047
488.3804
488.43938
488.49742
488.55457
488.61083
488.66622
488.72075
488.7744
488.82714
488.8789
488.92955
488.97888
489.02652
489.07195
489.11431
489.15237
489.18439
489.20808
489.22092
492.81171
486.35013
481.25998
477.92354
475.97229
474.98715
474.63179
474.66787
474.93672
475.33637
475.80281
476.29662
476.79411
477.28157
477.75154
478.20044
478.62704
479.03144
479.4145
479.77746
480.12165
480.44843
480.75909
481.05483
481.33675
481.60586
481.86305
482.10918
482.34499
482.57116
482.78834
482.99709
483.19795
483.39139
483.57785
483.75774
483.93143
484.09927
484.26158
484.41864
484.57074
484.71813
484.86104
484.9997
485.1343
485.26505
485.39212
485.51569
485.6359
485.75291
485.86685
485.97787
486.08607
486.19159
486.29452
486.39498
486.49306
486.58886
486.68246
486.77395
486.86341
486.95091
487.03653
487.12033
487.20238
487.28274
487.36147
487.43863
487.51428
487.58845
487.66121
487.7326
487.80267
487.87146
487.93901
488.00536
488.07055
488.13462
488.19761
488.25955
488.32047
488.3804
488.43938
488.49742
488.55457
488.61083
488.66622
488.72075
488.7744
488.82714
488.8789
488.92955
488.97888
489.02652
489.07195
489.11431
489.15237
489.18439
489.20808
489.22092
489.46728
480.19135
473.05687
468.49007
465.88124
464.60481
464.18228
464.28396
464.69414
465.27565
465.94296
466.64363
467.34634
468.03305
468.69409
469.32491
469.9241
470.49199
471.0299
471.53959
472.02299
472.48201
472.91844
473.33398
473.73015
474.10837
474.46989
474.81588
475.1474
475.46542
475.7708
476.06437
476.34684
476.61891
476.88118
477.13422
477.37856
477.61468
477.84302
478.06401
478.27801
478.4854
478.68649
478.88161
479.07103
479.25503
479.43386
479.60776
479.77694
479.94163
480.102
480.25826
480.41057
480.55909
480.70398
480.84539
480.98346
481.11831
481.25008
481.37887
481.50481
481.62799
481.74852
481.8665
481.98202
482.09516
482.206
482.31464
482.42114
482.52557
482.62801
482.72853
482.82718
482.92404
483.01915
483.11257
483.20437
483.29458
483.38327
483.47048
483.55626
483.64065
483.72369
483.80543
483.8859
483.96512
484.04313
484.11992
484.19548
484.26977
484.3427
484.41409
484.48365
484.55092
484.61515
484.67521
484.72937
484.77522
484.80942
484.82817
489.46728
480.19135
473.05687
468.49007
465.88124
464.60481
464.18228
464.28396
464.69414
465.27565
465.94296
466.64363
467.34634
468.03305
468.69409
469.32491
469.9241
470.49199
471.0299
471.53959
472.02299
472.48201
472.91844
473.33398
473.73015
474.10837
474.46989
474.81588
475.1474
475.46542
475.7708
476.06437
476.34684
476.61891
476.88118
477.13422
477.37856
477.61468
477.84302
478.06401
478.27801
478.4854
478.68649
478.88161
479.07103
479.25503
479.43386
479.60776
479.77694
479.94163
480.102
480.25826
480.41057
480.55909
480.70398
480.84539
480.98346
481.11831
481.25008
481.37887
481.50481
481.62799
481.74852
481.8665
481.98202
482.09516
482.206
482.31464
482.42114
482.52557
482.62801
482.72853
482.82718
482.92404
483.01915
483.11257
483.20437
483.29458
483.38327
483.47048
483.55626
483.64065
483.72369
483.80543
483.8859
483.96512
484.04313
484.11992
484.19548
484.26977
484.3427
484.41409
484.48365
484.55092
484.61515
484.67521
484.72937
484.77522
484.80942
484.82817
489.46728
480.19135
473.05687
468.49007
465.88124
464.60481
464.18228
464.28396
464.69414
465.27565
465.94296
466.64363
467.34634
468.03305
468.69409
469.32491
469.9241
470.49199
471.0299
471.53959
472.02299
472.48201
472.91844
473.33398
473.73015
474.10837
474.46989
474.81588
475.1474
475.46542
475.7708
476.06437
476.34684
476.61891
476.88118
477.13422
477.37856
477.61468
477.84302
478.06401
478.27801
478.4854
478.68649
478.88161
479.07103
479.25503
479.43386
479.60776
479.77694
479.94163
480.102
480.25826
480.41057
480.55909
480.70398
480.84539
480.98346
481.11831
481.25008
481.37887
481.50481
481.62799
481.74852
481.8665
481.98202
482.09516
482.206
482.31464
482.42114
482.52557
482.62801
482.72853
482.82718
482.92404
483.01915
483.11257
483.20437
483.29458
483.38327
483.47048
483.55626
483.64065
483.72369
483.80543
483.8859
483.96512
484.04313
484.11992
484.19548
484.26977
484.3427
484.41409
484.48365
484.55092
484.61515
484.67521
484.72937
484.77522
484.80942
484.82817
489.46728
480.19135
473.05687
468.49007
465.88124
464.60481
464.18228
464.28396
464.69414
465.27565
465.94296
466.64363
467.34634
468.03305
468.69409
469.32491
469.9241
470.49199
471.0299
471.53959
472.02299
472.48201
472.91844
473.33398
473.73015
474.10837
474.46989
474.81588
475.1474
475.46542
475.7708
476.06437
476.34684
476.61891
476.88118
477.13422
477.37856
477.61468
477.84302
478.06401
478.27801
478.4854
478.68649
478.88161
479.07103
479.25503
479.43386
479.60776
479.77694
479.94163
480.102
480.25826
480.41057
480.55909
480.70398
480.84539
480.98346
481.11831
481.25008
481.37887
481.50481
481.62799
481.74852
481.8665
481.98202
482.09516
482.206
482.31464
482.42114
482.52557
482.62801
482.72853
482.82718
482.92404
483.01915
483.11257
483.20437
483.29458
483.38327
483.47048
483.55626
483.64065
483.72369
483.80543
483.8859
483.96512
484.04313
484.11992
484.19548
484.26977
484.3427
484.41409
484.48365
484.55092
484.61515
484.67521
484.72937
484.77522
484.80942
484.82817
485.55661
473.26421
464.13701
458.48847
455.36784
453.91183
453.49898
453.71625
454.29917
455.0818
455.96149
456.87572
457.78738
458.6753
459.52834
460.34149
461.1134
461.84483
462.53764
463.1942
463.817
464.40851
464.97107
465.5068
466.01768
466.50549
466.97186
467.41827
467.84608
468.25652
468.65071
469.02969
469.3944
469.74571
470.08441
470.41122
470.72683
471.03184
471.32684
471.61234
471.88885
472.15683
472.4167
472.66885
472.91367
473.15149
473.38264
473.60743
473.82614
474.03904
474.24638
474.4484
474.64532
474.83736
475.02472
475.20757
475.38612
475.56051
475.73091
475.89748
476.06035
476.21967
476.37557
476.52817
476.67758
476.82393
476.96731
477.10784
477.2456
477.3807
477.51323
477.64326
477.77089
477.89619
478.01924
478.14011
478.25887
478.3756
478.49035
478.60318
478.71417
478.82336
478.93081
479.03658
479.1407
479.24322
479.34416
479.44354
479.54134
479.63752
479.73196
479.82446
479.91466
480.002
480.08556
480.16397
480.23505
480.29572
480.34149
480.36704
485.55661
473.26421
464.13701
458.48847
455.36784
453.91183
453.49898
453.71625
454.29917
455.0818
455.96149
456.87572
457.78738
458.6753
459.52834
460.34149
461.1134
461.84483
462.53764
463.1942
463.817
464.40851
464.97107
465.5068
466.01768
466.50549
466.97186
467.41827
467.84608
468.25652
468.65071
469.02969
469.3944
469.74571
470.08441
470.41122
470.72683
471.03184
471.32684
471.61234
471.88885
472.15683
472.4167
472.66885
472.91367
473.15149
473.38264
473.60743
473.82614
474.03904
474.24638
474.4484
474.64532
474.83736
475.02472
475.20757
475.38612
475.56051
475.73091
475.89748
476.06035
476.21967
476.37557
476.52817
476.67758
476.82393
476.96731
477.10784
477.2456
477.3807
477.51323
477.64326
477.77089
477.89619
478.01924
478.14011
478.25887
478.3756
478.49035
478.60318
478.71417
478.82336
478.93081
479.03658
479.1407
479.24322
479.34416
479.44354
479.54134
479.63752
479.73196
479.82446
479.91466
480.002
480.08556
480.16397
480.23505
480.29572
480.34149
480.36704
485.55661
473.26421
464.13701
458.48847
455.36784
453.91183
453.49898
453.71625
454.29917
455.0818
455.96149
456.87572
457.78738
458.6753
459.52834
460.34149
461.1134
461.84483
462.53764
463.1942
463.817
464.40851
464.97107
465.5068
466.01768
466.50549
466.97186
467.41827
467.84608
468.25652
468.65071
469.02969
469.3944
469.74571
470.08441
470.41122
470.72683
471.03184
471.32684
471.61234
471.88885
472.15683
472.4167
472.66885
472.91367
473.15149
473.38264
473.60743
473.82614
474.03904
474.24638
474.4484
474.64532
474.83736
475.02472
475.20757
475.38612
475.56051
475.73091
475.89748
476.06035
476.21967
476.37557
476.52817
476.67758
476.82393
476.96731
477.10784
477.2456
477.3807
477.51323
477.64326
477.77089
477.89619
478.01924
478.14011
478.25887
478.3756
478.49035
478.60318
478.71417
478.82336
478.93081
479.03658
479.1407
479.24322
479.34416
479.44354
479.54134
479.63752
479.73196
479.82446
479.91466
480.002
480.08556
480.16397
480.23505
480.29572
480.34149
480.36704
485.55661
473.26421
464.13701
458.48847
455.36784
453.91183
453.49898
453.71625
454.29917
455.0818
455.96149
456.87572
457.78738
458.6753
459.52834
460.34149
461.1134
461.84483
462.53764
463.1942
463.817
464.40851
464.97107
465.5068
466.01768
466.50549
466.97186
467.41827
467.84608
468.25652
468.65071
469.02969
469.3944
469.74571
470.08441
470.41122
470.72683
471.03184
471.32684
471.61234
471.88885
472.15683
472.4167
472.66885
472.91367
473.15149
473.38264
473.60743
473.82614
474.03904
474.24638
474.4484
474.64532
474.83736
475.02472
475.20757
475.38612
475.56051
475.73091
475.89748
476.06035
476.21967
476.37557
476.52817
476.67758
476.82393
476.96731
477.10784
477.2456
477.3807
477.51323
477.64326
477.77089
477.89619
478.01924
478.14011
478.25887
478.3756
478.49035
478.60318
478.71417
478.82336
478.93081
479.03658
479.1407
479.24322
479.34416
479.44354
479.54134
479.63752
479.73196
479.82446
479.91466
480.002
480.08556
480.16397
480.23505
480.29572
480.34149
480.36704
480.7322
465.21708
454.24758
447.75867
444.33369
442.84653
442.54131
442.93608
443.72983
444.73643
445.84183
446.97706
448.10152
449.19239
450.23798
451.23338
452.17769
453.07227
453.91964
454.72281
455.4849
456.20893
456.89772
457.55386
458.17974
458.77752
459.34916
459.89646
460.42106
460.92446
461.40802
461.87301
462.32056
462.75172
463.16747
463.56869
463.9562
464.33074
464.69303
465.0437
465.38336
465.71256
466.03184
466.34167
466.6425
466.93476
467.21885
467.49514
467.76397
468.02569
468.28058
468.52895
468.77107
469.0072
469.23758
469.46245
469.68201
469.89649
470.10607
470.31094
470.51128
470.70725
470.89902
471.08674
471.27056
471.4506
471.62701
471.7999
471.96941
472.13564
472.29871
472.45872
472.61577
472.76996
472.92138
473.07013
473.21629
473.35994
473.50117
473.64004
473.77664
473.91104
474.04329
474.17348
474.30164
474.42784
474.5521
474.67446
474.79489
474.91335
475.0297
475.14374
475.25504
475.363
475.46654
475.56411
475.65311
475.72993
475.78875
475.82252
480.7322
465.21708
454.24758
447.75867
444.33369
442.84653
442.54131
442.93608
443.72983
444.73643
445.84183
446.97706
448.10152
449.19239
450.23798
451.23338
452.17769
453.07227
453.91964
454.72281
455.4849
456.20893
456.89772
457.55386
458.17974
458.77752
459.34916
459.89646
460.42106
460.92446
461.40802
461.87301
462.32056
462.75172
463.16747
463.56869
463.9562
464.33074
464.69303
465.0437
465.38336
465.71256
466.03184
466.34167
466.6425
466.93476
467.21885
467.49514
467.76397
468.02569
468.28058
468.52895
468.77107
469.0072
469.23758
469.46245
469.68201
469.89649
470.10607
470.31094
470.51128
470.70725
470.89902
471.08674
471.27056
471.4506
471.62701
471.7999
471.96941
472.13564
472.29871
472.45872
472.61577
472.76996
472.92138
473.07013
473.21629
473.35994
473.50117
473.64004
473.77664
473.91104
474.04329
474.17348
474.30164
474.42784
474.5521
474.67446
474.79489
474.91335
475.0297
475.14374
475.25504
475.363
475.46654
475.56411
475.65311
475.72993
475.78875
475.82252
480.7322
465.21708
454.24758
447.75867
444.33369
442.84653
442.54131
442.93608
443.72983
444.73643
445.84183
446.97706
448.10152
449.19239
450.23798
451.23338
452.17769
453.07227
453.91964
454.72281
455.4849
456.20893
456.89772
457.55386
458.17974
458.77752
459.34916
459.89646
460.42106
460.92446
461.40802
461.87301
462.32056
462.75172
463.16747
463.56869
463.9562
464.33074
464.69303
465.0437
465.38336
465.71256
466.03184
466.34167
466.6425
466.93476
467.21885
467.49514
467.76397
468.02569
468.28058
468.52895
468.77107
469.0072
469.23758
469.46245
469.68201
469.89649
470.10607
470.31094
470.51128
470.70725
470.89902
471.08674
471.27056
471.4506
471.62701
471.7999
471.96941
472.13564
472.29871
472.45872
472.61577
472.76996
472.92138
473.07013
473.21629
473.35994
473.50117
473.64004
473.77664
473.91104
474.04329
474.17348
474.30164
474.42784
474.5521
474.67446
474.79489
474.91335
475.0297
475.14374
475.25504
475.363
475.46654
475.56411
475.65311
475.72993
475.78875
475.82252
480.7322
465.21708
454.24758
447.75867
444.33369
442.84653
442.54131
442.93608
443.72983
444.73643
445.84183
446.97706
448.10152
449.19239
450.23798
451.23338
452.17769
453.07227
453.91964
454.72281
455.4849
456.20893
456.89772
457.55386
458.17974
458.77752
459.34916
459.89646
460.42106
460.92446
461.40802
461.87301
462.32056
462.75172
463.16747
463.56869
463.9562
464.33074
464.69303
465.0437
465.38336
465.71256
466.03184
466.34167
466.6425
466.93476
467.21885
467.49514
467.76397
468.02569
468.28058
468.52895
468.77107
469.0072
469.23758
469.46245
469.68201
469.89649
470.10607
470.31094
470.51128
470.70725
470.89902
471.08674
471.27056
471.4506
471.62701
471.7999
471.96941
472.13564
472.29871
472.45872
472.61577
472.76996
472.92138
473.07013
473.21629
473.35994
473.50117
473.64004
473.77664
473.91104
474.04329
474.17348
474.30164
474.42784
474.5521
474.67446
474.79489
474.91335
475.0297
475.14374
475.25504
475.363
475.46654
475.56411
475.65311
475.72993
475.78875
475.82252
474.39207
455.55539
443.08476
436.12761
432.6772
431.34408
431.26333
431.90746
432.95544
434.21171
435.55758
436.92186
438.26311
439.55854
440.79697
441.97424
443.0903
444.14736
445.14871
446.09807
446.99918
447.85561
448.67067
449.44739
450.18854
450.89664
451.57398
452.22266
452.8446
453.44154
454.01509
454.56672
455.09778
455.6095
456.103
456.57935
457.03948
457.48429
457.91461
458.33118
458.73473
459.12591
459.50532
459.87356
460.23114
460.57857
460.91632
461.24483
461.5645
461.87573
462.17888
462.47429
462.7623
463.04319
463.31727
463.5848
463.84605
464.10125
464.35065
464.59445
464.83288
465.06613
465.29438
465.51783
465.73663
465.95096
466.16097
466.36681
466.56862
466.76655
466.96071
467.15124
467.33825
467.52186
467.70219
467.87934
468.0534
468.22449
468.39269
468.5581
468.7208
468.88089
469.03843
469.1935
469.34618
469.49652
469.64457
469.79037
469.93388
470.0751
470.21385
470.34995
470.48291
470.61215
470.73641
470.85414
470.96226
471.05696
471.1308
471.17515
474.39207
455.55539
443.08476
436.12761
432.6772
431.34408
431.26333
431.90746
432.95544
434.21171
435.55758
436.92186
438.26311
439.55854
440.79697
441.97424
443.0903
444.14736
445.14871
446.09807
446.99918
447.85561
448.67067
449.44739
450.18854
450.89664
451.57398
452.22266
452.8446
453.44154
454.01509
454.56672
455.09778
455.6095
456.103
456.57935
457.03948
457.48429
457.91461
458.33118
458.73473
459.12591
459.50532
459.87356
460.23114
460.57857
460.91632
461.24483
461.5645
461.87573
462.17888
462.47429
462.7623
463.04319
463.31727
463.5848
463.84605
464.10125
464.35065
464.59445
464.83288
465.06613
465.29438
465.51783
465.73663
465.95096
466.16097
466.36681
466.56862
466.76655
466.96071
467.15124
467.33825
467.52186
467.70219
467.87934
468.0534
468.22449
468.39269
468.5581
468.7208
468.88089
469.03843
469.1935
469.34618
469.49652
469.64457
469.79037
469.93388
470.0751
470.21385
470.34995
470.48291
470.61215
470.73641
470.85414
470.96226
471.05696
471.1308
471.17515
474.39207
455.55539
443.08476
436.12761
432.6772
431.34408
431.26333
431.90746
432.95544
434.21171
435.55758
436.92186
438.26311
439.55854
440.79697
441.97424
443.0903
444.14736
445.14871
446.09807
446.99918
447.85561
448.67067
449.44739
450.18854
450.89664
451.57398
452.22266
452.8446
453.44154
454.01509
454.56672
455.09778
455.6095
456.103
456.57935
457.03948
457.48429
457.91461
458.33118
458.73473
459.12591
459.50532
459.87356
460.23114
460.57857
460.91632
461.24483
461.5645
461.87573
462.17888
462.47429
462.7623
463.04319
463.31727
463.5848
463.84605
464.10125
464.35065
464.59445
464.83288
465.06613
465.29438
465.51783
465.73663
465.95096
466.16097
466.36681
466.56862
466.76655
466.96071
467.15124
467.33825
467.52186
467.70219
467.87934
468.0534
468.22449
468.39269
468.5581
468.7208
468.88089
469.03843
469.1935
469.34618
469.49652
469.64457
469.79037
469.93388
470.0751
470.21385
470.34995
470.48291
470.61215
470.73641
470.85414
470.96226
471.05696
471.1308
471.17515
474.39207
455.55539
443.08476
436.12761
432.6772
431.34408
431.26333
431.90746
432.95544
434.21171
435.55758
436.92186
438.26311
439.55854
440.79697
441.97424
443.0903
444.14736
445.14871
446.09807
446.99918
447.85561
448.67067
449.44739
450.18854
450.89664
451.57398
452.22266
452.8446
453.44154
454.01509
454.56672
455.09778
455.6095
456.103
456.57935
457.03948
457.48429
457.91461
458.33118
458.73473
459.12591
459.50532
459.87356
460.23114
460.57857
460.91632
461.24483
461.5645
461.87573
462.17888
462.47429
462.7623
463.04319
463.31727
463.5848
463.84605
464.10125
464.35065
464.59445
464.83288
465.06613
465.29438
465.51783
465.73663
465.95096
466.16097
466.36681
466.56862
466.76655
466.96071
467.15124
467.33825
467.52186
467.70219
467.87934
468.0534
468.22449
468.39269
468.5581
468.7208
468.88089
469.03843
469.1935
469.34618
469.49652
469.64457
469.79037
469.93388
470.0751
470.21385
470.34995
470.48291
470.61215
470.73641
470.85414
470.96226
471.05696
471.1308
471.17515
465.33129
443.4787
430.20323
423.33476
420.2223
419.267
419.54629
420.52159
421.87304
423.40839
425.01201
426.61519
428.17857
429.68123
431.11367
432.47323
433.76116
434.98076
436.13625
437.2321
438.27271
439.26218
440.20428
441.10247
441.95987
442.77935
443.56352
444.31475
445.03523
445.72696
446.39177
447.03133
447.64719
448.24076
448.81333
449.3661
449.90016
450.41654
450.91617
451.39994
451.86864
452.32305
452.76386
453.19174
453.60729
454.0111
454.4037
454.7856
455.15728
455.51917
455.87171
456.21528
456.55027
456.87702
457.19587
457.50713
457.8111
458.10806
458.39829
458.68203
458.95954
459.23103
459.49673
459.75685
460.01158
460.26112
460.50564
460.74532
460.98032
461.2108
461.43692
461.65882
461.87663
462.09049
462.30054
462.50689
462.70965
462.90896
463.10491
463.29763
463.48718
463.6737
463.85726
464.03796
464.21587
464.39108
464.56361
464.73356
464.90085
465.06555
465.22742
465.38636
465.54176
465.69322
465.83916
465.97841
466.10712
466.22211
466.3136
466.3728
465.33129
443.4787
430.20323
423.33476
420.2223
419.267
419.54629
420.52159
421.87304
423.40839
425.01201
426.61519
428.17857
429.68123
431.11367
432.47323
433.76116
434.98076
436.13625
437.2321
438.27271
439.26218
440.20428
441.10247
441.95987
442.77935
443.56352
444.31475
445.03523
445.72696
446.39177
447.03133
447.64719
448.24076
448.81333
449.3661
449.90016
450.41654
450.91617
451.39994
451.86864
452.32305
452.76386
453.19174
453.60729
454.0111
454.4037
454.7856
455.15728
455.51917
455.87171
456.21528
456.55027
456.87702
457.19587
457.50713
457.8111
458.10806
458.39829
458.68203
458.95954
459.23103
459.49673
459.75685
460.01158
460.26112