/*--------------------------------*- C++ -*----------------------------------*\
  =========                 |
  \\      /  F ield         | OpenFOAM: The Open Source CFD Toolbox
   \\    /   O peration     | Website:  https://openfoam.org
    \\  /    A nd           | Version:  8
     \\/     M anipulation  |
\*---------------------------------------------------------------------------*/
FoamFile
{
    version     2.0;
    format      ascii;
    class       volScalarField;
    location    "0";
    object      Ts;
}
// * * * * * * * * * * * * * * * * * * * * * * * * * * * * * * * * * * * * * //

dimensions      [0 0 0 1 0 0 0];

internalField   nonuniform List<scalar> 
40000
(
498.79282
497.37451
496.35014
495.66978
495.2634
495.05248
494.97117
494.97144
495.02071
495.09781
495.18935
495.28705
495.3859
495.483
495.57675
495.66635
495.75153
495.83228
495.90876
495.98121
496.0499
496.1151
496.17706
496.23604
496.29224
496.34588
496.39714
496.44618
496.49316
496.53821
496.58146
496.62303
496.66302
496.70153
496.73865
496.77445
496.80902
496.84242
496.87472
496.90597
496.93623
496.96555
496.99398
497.02155
497.04833
497.07433
497.0996
497.12417
497.14807
497.17134
497.19399
497.21606
497.23758
497.25855
497.27901
497.29898
497.31848
497.33752
497.35612
497.3743
497.39208
497.40947
497.42649
497.44314
497.45944
497.47541
497.49106
497.50639
497.52142
497.53615
497.55061
497.56479
497.57871
497.59238
497.6058
497.61898
497.63193
497.64466
497.65717
497.66947
497.68157
497.69348
497.70519
497.71672
497.72807
497.73925
497.75025
497.76108
497.77173
497.78221
497.79248
497.80253
497.81231
497.82175
497.83074
497.83909
497.84657
497.85283
497.85743
497.85989
498.79282
497.37451
496.35014
495.66978
495.2634
495.05248
494.97117
494.97144
495.02071
495.09781
495.18935
495.28705
495.3859
495.483
495.57675
495.66635
495.75153
495.83228
495.90876
495.98121
496.0499
496.1151
496.17706
496.23604
496.29224
496.34588
496.39714
496.44618
496.49316
496.53821
496.58146
496.62303
496.66302
496.70153
496.73865
496.77445
496.80902
496.84242
496.87472
496.90597
496.93623
496.96555
496.99398
497.02155
497.04833
497.07433
497.0996
497.12417
497.14807
497.17134
497.19399
497.21606
497.23758
497.25855
497.27901
497.29898
497.31848
497.33752
497.35612
497.3743
497.39208
497.40947
497.42649
497.44314
497.45944
497.47541
497.49106
497.50639
497.52142
497.53615
497.55061
497.56479
497.57871
497.59238
497.6058
497.61898
497.63193
497.64466
497.65717
497.66947
497.68157
497.69348
497.70519
497.71672
497.72807
497.73925
497.75025
497.76108
497.77173
497.78221
497.79248
497.80253
497.81231
497.82175
497.83074
497.83909
497.84657
497.85283
497.85743
497.85989
498.79282
497.37451
496.35014
495.66978
495.2634
495.05248
494.97117
494.97144
495.02071
495.09781
495.18935
495.28705
495.3859
495.483
495.57675
495.66635
495.75153
495.83228
495.90876
495.98121
496.0499
496.1151
496.17706
496.23604
496.29224
496.34588
496.39714
496.44618
496.49316
496.53821
496.58146
496.62303
496.66302
496.70153
496.73865
496.77445
496.80902
496.84242
496.87472
496.90597
496.93623
496.96555
496.99398
497.02155
497.04833
497.07433
497.0996
497.12417
497.14807
497.17134
497.19399
497.21606
497.23758
497.25855
497.27901
497.29898
497.31848
497.33752
497.35612
497.3743
497.39208
497.40947
497.42649
497.44314
497.45944
497.47541
497.49106
497.50639
497.52142
497.53615
497.55061
497.56479
497.57871
497.59238
497.6058
497.61898
497.63193
497.64466
497.65717
497.66947
497.68157
497.69348
497.70519
497.71672
497.72807
497.73925
497.75025
497.76108
497.77173
497.78221
497.79248
497.80253
497.81231
497.82175
497.83074
497.83909
497.84657
497.85283
497.85743
497.85989
498.79282
497.37451
496.35014
495.66978
495.2634
495.05248
494.97117
494.97144
495.02071
495.09781
495.18935
495.28705
495.3859
495.483
495.57675
495.66635
495.75153
495.83228
495.90876
495.98121
496.0499
496.1151
496.17706
496.23604
496.29224
496.34588
496.39714
496.44618
496.49316
496.53821
496.58146
496.62303
496.66302
496.70153
496.73865
496.77445
496.80902
496.84242
496.87472
496.90597
496.93623
496.96555
496.99398
497.02155
497.04833
497.07433
497.0996
497.12417
497.14807
497.17134
497.19399
497.21606
497.23758
497.25855
497.27901
497.29898
497.31848
497.33752
497.35612
497.3743
497.39208
497.40947
497.42649
497.44314
497.45944
497.47541
497.49106
497.50639
497.52142
497.53615
497.55061
497.56479
497.57871
497.59238
497.6058
497.61898
497.63193
497.64466
497.65717
497.66947
497.68157
497.69348
497.70519
497.71672
497.72807
497.73925
497.75025
497.76108
497.77173
497.78221
497.79248
497.80253
497.81231
497.82175
497.83074
497.83909
497.84657
497.85283
497.85743
497.85989
496.32436
492.02448
488.94049
486.90655
485.70021
485.07978
484.84577
484.85397
485.00715
485.24238
485.51992
485.81525
486.11359
486.40634
486.6888
486.95869
487.21519
487.45833
487.6886
487.90673
488.11353
488.30982
488.49639
488.67395
488.84318
489.00468
489.15901
489.30666
489.44811
489.58376
489.71399
489.83915
489.95957
490.07552
490.18728
490.29508
490.39917
490.49973
490.59697
490.69107
490.78218
490.87046
490.95605
491.03909
491.11969
491.19799
491.27407
491.34805
491.42002
491.49006
491.55827
491.62472
491.68949
491.75264
491.81424
491.87436
491.93306
491.99038
492.04639
492.10113
492.15466
492.20701
492.25823
492.30837
492.35745
492.40553
492.45262
492.49878
492.54402
492.58839
492.63191
492.67461
492.71651
492.75765
492.79805
492.83773
492.87672
492.91503
492.9527
492.98973
493.02616
493.062
493.09726
493.13197
493.16614
493.19978
493.23289
493.26549
493.29757
493.32909
493.36003
493.39029
493.41975
493.44819
493.47527
493.50049
493.52309
493.54202
493.55596
493.56347
496.32436
492.02448
488.94049
486.90655
485.70021
485.07978
484.84577
484.85397
485.00715
485.24238
485.51992
485.81525
486.11359
486.40634
486.6888
486.95869
487.21519
487.45833
487.6886
487.90673
488.11353
488.30982
488.49639
488.67395
488.84318
489.00468
489.15901
489.30666
489.44811
489.58376
489.71399
489.83915
489.95957
490.07552
490.18728
490.29508
490.39917
490.49973
490.59697
490.69107
490.78218
490.87046
490.95605
491.03909
491.11969
491.19799
491.27407
491.34805
491.42002
491.49006
491.55827
491.62472
491.68949
491.75264
491.81424
491.87436
491.93306
491.99038
492.04639
492.10113
492.15466
492.20701
492.25823
492.30837
492.35745
492.40553
492.45262
492.49878
492.54402
492.58839
492.63191
492.67461
492.71651
492.75765
492.79805
492.83773
492.87672
492.91503
492.9527
492.98973
493.02616
493.062
493.09726
493.13197
493.16614
493.19978
493.23289
493.26549
493.29757
493.32909
493.36003
493.39029
493.41975
493.44819
493.47527
493.50049
493.52309
493.54202
493.55596
493.56347
496.32436
492.02448
488.94049
486.90655
485.70021
485.07978
484.84577
484.85397
485.00715
485.24238
485.51992
485.81525
486.11359
486.40634
486.6888
486.95869
487.21519
487.45833
487.6886
487.90673
488.11353
488.30982
488.49639
488.67395
488.84318
489.00468
489.15901
489.30666
489.44811
489.58376
489.71399
489.83915
489.95957
490.07552
490.18728
490.29508
490.39917
490.49973
490.59697
490.69107
490.78218
490.87046
490.95605
491.03909
491.11969
491.19799
491.27407
491.34805
491.42002
491.49006
491.55827
491.62472
491.68949
491.75264
491.81424
491.87436
491.93306
491.99038
492.04639
492.10113
492.15466
492.20701
492.25823
492.30837
492.35745
492.40553
492.45262
492.49878
492.54402
492.58839
492.63191
492.67461
492.71651
492.75765
492.79805
492.83773
492.87672
492.91503
492.9527
492.98973
493.02616
493.062
493.09726
493.13197
493.16614
493.19978
493.23289
493.26549
493.29757
493.32909
493.36003
493.39029
493.41975
493.44819
493.47527
493.50049
493.52309
493.54202
493.55596
493.56347
496.32436
492.02448
488.94049
486.90655
485.70021
485.07978
484.84577
484.85397
485.00715
485.24238
485.51992
485.81525
486.11359
486.40634
486.6888
486.95869
487.21519
487.45833
487.6886
487.90673
488.11353
488.30982
488.49639
488.67395
488.84318
489.00468
489.15901
489.30666
489.44811
489.58376
489.71399
489.83915
489.95957
490.07552
490.18728
490.29508
490.39917
490.49973
490.59697
490.69107
490.78218
490.87046
490.95605
491.03909
491.11969
491.19799
491.27407
491.34805
491.42002
491.49006
491.55827
491.62472
491.68949
491.75264
491.81424
491.87436
491.93306
491.99038
492.04639
492.10113
492.15466
492.20701
492.25823
492.30837
492.35745
492.40553
492.45262
492.49878
492.54402
492.58839
492.63191
492.67461
492.71651
492.75765
492.79805
492.83773
492.87672
492.91503
492.9527
492.98973
493.02616
493.062
493.09726
493.13197
493.16614
493.19978
493.23289
493.26549
493.29757
493.32909
493.36003
493.39029
493.41975
493.44819
493.47527
493.50049
493.52309
493.54202
493.55596
493.56347
493.69026
486.3864
481.23073
477.88232
475.92603
474.93926
474.58462
474.62291
474.89479
475.29785
475.76777
476.26495
476.76562
477.25601
477.72867
478.18
478.60879
479.01517
479.40004
479.76462
480.11029
480.43843
480.75032
481.0472
481.33017
481.60024
481.85833
482.10528
482.34186
482.56875
482.78659
482.99597
483.19741
483.39139
483.57836
483.75873
483.93288
484.10115
484.26385
484.4213
484.57375
484.72148
484.86471
485.00367
485.13856
485.26958
485.39691
485.52072
485.64116
485.75839
485.87255
485.98376
486.09216
486.19786
486.30096
486.40159
486.49983
486.59578
486.68952
486.78115
486.87074
486.95836
487.0441
487.12802
487.21018
487.29065
487.36948
487.44674
487.52248
487.59674
487.66959
487.74106
487.81121
487.88007
487.94769
488.01412
488.07938
488.14351
488.20656
488.26856
488.32954
488.38953
488.44856
488.50666
488.56385
488.62016
488.6756
488.73018
488.78388
488.83666
488.88847
488.93916
488.98852
489.03622
489.08168
489.12409
489.16219
489.19424
489.21796
489.23082
493.69026
486.3864
481.23073
477.88232
475.92603
474.93926
474.58462
474.62291
474.89479
475.29785
475.76777
476.26495
476.76562
477.25601
477.72867
478.18
478.60879
479.01517
479.40004
479.76462
480.11029
480.43843
480.75032
481.0472
481.33017
481.60024
481.85833
482.10528
482.34186
482.56875
482.78659
482.99597
483.19741
483.39139
483.57836
483.75873
483.93288
484.10115
484.26385
484.4213
484.57375
484.72148
484.86471
485.00367
485.13856
485.26958
485.39691
485.52072
485.64116
485.75839
485.87255
485.98376
486.09216
486.19786
486.30096
486.40159
486.49983
486.59578
486.68952
486.78115
486.87074
486.95836
487.0441
487.12802
487.21018
487.29065
487.36948
487.44674
487.52248
487.59674
487.66959
487.74106
487.81121
487.88007
487.94769
488.01412
488.07938
488.14351
488.20656
488.26856
488.32954
488.38953
488.44856
488.50666
488.56385
488.62016
488.6756
488.73018
488.78388
488.83666
488.88847
488.93916
488.98852
489.03622
489.08168
489.12409
489.16219
489.19424
489.21796
489.23082
493.69026
486.3864
481.23073
477.88232
475.92603
474.93926
474.58462
474.62291
474.89479
475.29785
475.76777
476.26495
476.76562
477.25601
477.72867
478.18
478.60879
479.01517
479.40004
479.76462
480.11029
480.43843
480.75032
481.0472
481.33017
481.60024
481.85833
482.10528
482.34186
482.56875
482.78659
482.99597
483.19741
483.39139
483.57836
483.75873
483.93288
484.10115
484.26385
484.4213
484.57375
484.72148
484.86471
485.00367
485.13856
485.26958
485.39691
485.52072
485.64116
485.75839
485.87255
485.98376
486.09216
486.19786
486.30096
486.40159
486.49983
486.59578
486.68952
486.78115
486.87074
486.95836
487.0441
487.12802
487.21018
487.29065
487.36948
487.44674
487.52248
487.59674
487.66959
487.74106
487.81121
487.88007
487.94769
488.01412
488.07938
488.14351
488.20656
488.26856
488.32954
488.38953
488.44856
488.50666
488.56385
488.62016
488.6756
488.73018
488.78388
488.83666
488.88847
488.93916
488.98852
489.03622
489.08168
489.12409
489.16219
489.19424
489.21796
489.23082
493.69026
486.3864
481.23073
477.88232
475.92603
474.93926
474.58462
474.62291
474.89479
475.29785
475.76777
476.26495
476.76562
477.25601
477.72867
478.18
478.60879
479.01517
479.40004
479.76462
480.11029
480.43843
480.75032
481.0472
481.33017
481.60024
481.85833
482.10528
482.34186
482.56875
482.78659
482.99597
483.19741
483.39139
483.57836
483.75873
483.93288
484.10115
484.26385
484.4213
484.57375
484.72148
484.86471
485.00367
485.13856
485.26958
485.39691
485.52072
485.64116
485.75839
485.87255
485.98376
486.09216
486.19786
486.30096
486.40159
486.49983
486.59578
486.68952
486.78115
486.87074
486.95836
487.0441
487.12802
487.21018
487.29065
487.36948
487.44674
487.52248
487.59674
487.66959
487.74106
487.81121
487.88007
487.94769
488.01412
488.07938
488.14351
488.20656
488.26856
488.32954
488.38953
488.44856
488.50666
488.56385
488.62016
488.6756
488.73018
488.78388
488.83666
488.88847
488.93916
488.98852
489.03622
489.08168
489.12409
489.16219
489.19424
489.21796
489.23082
490.75197
480.24598
473.02241
468.44415
465.83208
464.55562
464.1351
464.24006
464.65417
465.23985
465.91128
466.61591
467.32229
468.01236
468.67645
469.31002
469.91168
470.48179
471.02171
471.53321
472.01825
472.47875
472.91654
473.33331
473.73062
474.10988
474.47236
474.81924
475.15158
475.47036
475.77645
476.07067
476.35376
476.62639
476.88919
477.14273
477.38754
477.6241
477.85285
478.07422
478.28858
478.49631
478.69772
478.89313
479.08284
479.26711
479.44619
479.62033
479.78974
479.95463
480.11521
480.27165
480.42414
480.57283
480.71789
480.85945
480.99766
481.13265
481.26455
481.39347
481.51952
481.64281
481.76345
481.88153
481.99714
482.11037
482.2213
482.33002
482.43659
482.5411
482.64361
482.7442
482.84291
482.93982
483.03499
483.12847
483.22031
483.31058
483.39931
483.48657
483.57239
483.65682
483.7399
483.82167
483.90217
483.98143
484.05947
484.13629
484.21188
484.2862
484.35916
484.43058
484.50017
484.56747
484.63173
484.69182
484.74602
484.79191
484.82613
484.8449
490.75197
480.24598
473.02241
468.44415
465.83208
464.55562
464.1351
464.24006
464.65417
465.23985
465.91128
466.61591
467.32229
468.01236
468.67645
469.31002
469.91168
470.48179
471.02171
471.53321
472.01825
472.47875
472.91654
473.33331
473.73062
474.10988
474.47236
474.81924
475.15158
475.47036
475.77645
476.07067
476.35376
476.62639
476.88919
477.14273
477.38754
477.6241
477.85285
478.07422
478.28858
478.49631
478.69772
478.89313
479.08284
479.26711
479.44619
479.62033
479.78974
479.95463
480.11521
480.27165
480.42414
480.57283
480.71789
480.85945
480.99766
481.13265
481.26455
481.39347
481.51952
481.64281
481.76345
481.88153
481.99714
482.11037
482.2213
482.33002
482.43659
482.5411
482.64361
482.7442
482.84291
482.93982
483.03499
483.12847
483.22031
483.31058
483.39931
483.48657
483.57239
483.65682
483.7399
483.82167
483.90217
483.98143
484.05947
484.13629
484.21188
484.2862
484.35916
484.43058
484.50017
484.56747
484.63173
484.69182
484.74602
484.79191
484.82613
484.8449
490.75197
480.24598
473.02241
468.44415
465.83208
464.55562
464.1351
464.24006
464.65417
465.23985
465.91128
466.61591
467.32229
468.01236
468.67645
469.31002
469.91168
470.48179
471.02171
471.53321
472.01825
472.47875
472.91654
473.33331
473.73062
474.10988
474.47236
474.81924
475.15158
475.47036
475.77645
476.07067
476.35376
476.62639
476.88919
477.14273
477.38754
477.6241
477.85285
478.07422
478.28858
478.49631
478.69772
478.89313
479.08284
479.26711
479.44619
479.62033
479.78974
479.95463
480.11521
480.27165
480.42414
480.57283
480.71789
480.85945
480.99766
481.13265
481.26455
481.39347
481.51952
481.64281
481.76345
481.88153
481.99714
482.11037
482.2213
482.33002
482.43659
482.5411
482.64361
482.7442
482.84291
482.93982
483.03499
483.12847
483.22031
483.31058
483.39931
483.48657
483.57239
483.65682
483.7399
483.82167
483.90217
483.98143
484.05947
484.13629
484.21188
484.2862
484.35916
484.43058
484.50017
484.56747
484.63173
484.69182
484.74602
484.79191
484.82613
484.8449
490.75197
480.24598
473.02241
468.44415
465.83208
464.55562
464.1351
464.24006
464.65417
465.23985
465.91128
466.61591
467.32229
468.01236
468.67645
469.31002
469.91168
470.48179
471.02171
471.53321
472.01825
472.47875
472.91654
473.33331
473.73062
474.10988
474.47236
474.81924
475.15158
475.47036
475.77645
476.07067
476.35376
476.62639
476.88919
477.14273
477.38754
477.6241
477.85285
478.07422
478.28858
478.49631
478.69772
478.89313
479.08284
479.26711
479.44619
479.62033
479.78974
479.95463
480.11521
480.27165
480.42414
480.57283
480.71789
480.85945
480.99766
481.13265
481.26455
481.39347
481.51952
481.64281
481.76345
481.88153
481.99714
482.11037
482.2213
482.33002
482.43659
482.5411
482.64361
482.7442
482.84291
482.93982
483.03499
483.12847
483.22031
483.31058
483.39931
483.48657
483.57239
483.65682
483.7399
483.82167
483.90217
483.98143
484.05947
484.13629
484.21188
484.2862
484.35916
484.43058
484.50017
484.56747
484.63173
484.69182
484.74602
484.79191
484.82613
484.8449
487.315
473.33852
464.09568
458.43695
455.31552
453.8614
453.45202
453.67366
454.26138
455.04889
455.93329
456.85198
457.76773
458.65939
459.5158
460.33197
461.10659
461.84046
462.53545
463.19397
463.81855
464.41167
464.97568
465.51275
466.02485
466.51377
466.98117
467.42853
467.85721
468.26845
468.66338
469.04305
469.40841
469.76031
470.09956
470.42689
470.74298
471.04844
471.34385
471.62975
471.90663
472.17495
472.43514
472.68759
472.93269
473.17078
473.40218
473.6272
473.84612
474.05923
474.26676
474.46896
474.66606
474.85826
475.04577
475.22877
475.40744
475.58196
475.75248
475.91916
476.08214
476.24156
476.39754
476.55023
476.69972
476.84615
476.9896
477.13019
477.26802
477.40318
477.53576
477.66585
477.79352
477.91887
478.04196
478.16287
478.28167
478.39843
478.51321
478.62607
478.73708
478.8463
478.95378
479.05956
479.1637
479.26624
479.36719
479.46659
479.56441
479.6606
479.75506
479.84757
479.93779
480.02515
480.10874
480.18717
480.25828
480.31898
480.36478
480.39035
487.315
473.33852
464.09568
458.43695
455.31552
453.8614
453.45202
453.67366
454.26138
455.04889
455.93329
456.85198
457.76773
458.65939
459.5158
460.33197
461.10659
461.84046
462.53545
463.19397
463.81855
464.41167
464.97568
465.51275
466.02485
466.51377
466.98117
467.42853
467.85721
468.26845
468.66338
469.04305
469.40841
469.76031
470.09956
470.42689
470.74298
471.04844
471.34385
471.62975
471.90663
472.17495
472.43514
472.68759
472.93269
473.17078
473.40218
473.6272
473.84612
474.05923
474.26676
474.46896
474.66606
474.85826
475.04577
475.22877
475.40744
475.58196
475.75248
475.91916
476.08214
476.24156
476.39754
476.55023
476.69972
476.84615
476.9896
477.13019
477.26802
477.40318
477.53576
477.66585
477.79352
477.91887
478.04196
478.16287
478.28167
478.39843
478.51321
478.62607
478.73708
478.8463
478.95378
479.05956
479.1637
479.26624
479.36719
479.46659
479.56441
479.6606
479.75506
479.84757
479.93779
480.02515
480.10874
480.18717
480.25828
480.31898
480.36478
480.39035
487.315
473.33852
464.09568
458.43695
455.31552
453.8614
453.45202
453.67366
454.26138
455.04889
455.93329
456.85198
457.76773
458.65939
459.5158
460.33197
461.10659
461.84046
462.53545
463.19397
463.81855
464.41167
464.97568
465.51275
466.02485
466.51377
466.98117
467.42853
467.85721
468.26845
468.66338
469.04305
469.40841
469.76031
470.09956
470.42689
470.74298
471.04844
471.34385
471.62975
471.90663
472.17495
472.43514
472.68759
472.93269
473.17078
473.40218
473.6272
473.84612
474.05923
474.26676
474.46896
474.66606
474.85826
475.04577
475.22877
475.40744
475.58196
475.75248
475.91916
476.08214
476.24156
476.39754
476.55023
476.69972
476.84615
476.9896
477.13019
477.26802
477.40318
477.53576
477.66585
477.79352
477.91887
478.04196
478.16287
478.28167
478.39843
478.51321
478.62607
478.73708
478.8463
478.95378
479.05956
479.1637
479.26624
479.36719
479.46659
479.56441
479.6606
479.75506
479.84757
479.93779
480.02515
480.10874
480.18717
480.25828
480.31898
480.36478
480.39035
487.315
473.33852
464.09568
458.43695
455.31552
453.8614
453.45202
453.67366
454.26138
455.04889
455.93329
456.85198
457.76773
458.65939
459.5158
460.33197
461.10659
461.84046
462.53545
463.19397
463.81855
464.41167
464.97568
465.51275
466.02485
466.51377
466.98117
467.42853
467.85721
468.26845
468.66338
469.04305
469.40841
469.76031
470.09956
470.42689
470.74298
471.04844
471.34385
471.62975
471.90663
472.17495
472.43514
472.68759
472.93269
473.17078
473.40218
473.6272
473.84612
474.05923
474.26676
474.46896
474.66606
474.85826
475.04577
475.22877
475.40744
475.58196
475.75248
475.91916
476.08214
476.24156
476.39754
476.55023
476.69972
476.84615
476.9896
477.13019
477.26802
477.40318
477.53576
477.66585
477.79352
477.91887
478.04196
478.16287
478.28167
478.39843
478.51321
478.62607
478.73708
478.8463
478.95378
479.05956
479.1637
479.26624
479.36719
479.46659
479.56441
479.6606
479.75506
479.84757
479.93779
480.02515
480.10874
480.18717
480.25828
480.31898
480.36478
480.39035
483.08187
465.32213
454.20432
447.70644
444.28314
442.7997
442.49922
442.89929
443.69851
444.71051
445.82106
446.96109
448.08995
449.18481
450.23398
451.23259
452.17977
453.07692
453.92659
454.73183
455.49578
456.22149
456.9118
457.56934
458.19648
458.79541
459.36811
459.91638
460.44188
460.94609
461.43041
461.89609
462.34429
462.77605
463.19235
463.59408
463.98206
464.35705
464.71974
465.0708
465.41081
465.74034
466.05992
466.37004
466.67113
466.96364
467.24796
467.52446
467.7935
468.05539
468.31046
468.55899
468.80126
469.03753
469.26804
469.49302
469.7127
469.92727
470.13695
470.34191
470.54233
470.73838
470.93022
471.118
471.30187
471.48196
471.65842
471.83136
472.0009
472.16717
472.33027
472.4903
472.64738
472.80159
472.95303
473.1018
473.24797
473.39163
473.53286
473.67174
473.80835
473.94274
474.075
474.20518
474.33334
474.45954
474.58379
474.70614
474.82656
474.94502
475.06136
475.1754
475.2867
475.39466
475.49821
475.59579
475.6848
475.76164
475.82048
475.85425
483.08187
465.32213
454.20432
447.70644
444.28314
442.7997
442.49922
442.89929
443.69851
444.71051
445.82106
446.96109
448.08995
449.18481
450.23398
451.23259
452.17977
453.07692
453.92659
454.73183
455.49578
456.22149
456.9118
457.56934
458.19648
458.79541
459.36811
459.91638
460.44188
460.94609
461.43041
461.89609
462.34429
462.77605
463.19235
463.59408
463.98206
464.35705
464.71974
465.0708
465.41081
465.74034
466.05992
466.37004
466.67113
466.96364
467.24796
467.52446
467.7935
468.05539
468.31046
468.55899
468.80126
469.03753
469.26804
469.49302
469.7127
469.92727
470.13695
470.34191
470.54233
470.73838
470.93022
471.118
471.30187
471.48196
471.65842
471.83136
472.0009
472.16717
472.33027
472.4903
472.64738
472.80159
472.95303
473.1018
473.24797
473.39163
473.53286
473.67174
473.80835
473.94274
474.075
474.20518
474.33334
474.45954
474.58379
474.70614
474.82656
474.94502
475.06136
475.1754
475.2867
475.39466
475.49821
475.59579
475.6848
475.76164
475.82048
475.85425
483.08187
465.32213
454.20432
447.70644
444.28314
442.7997
442.49922
442.89929
443.69851
444.71051
445.82106
446.96109
448.08995
449.18481
450.23398
451.23259
452.17977
453.07692
453.92659
454.73183
455.49578
456.22149
456.9118
457.56934
458.19648
458.79541
459.36811
459.91638
460.44188
460.94609
461.43041
461.89609
462.34429
462.77605
463.19235
463.59408
463.98206
464.35705
464.71974
465.0708
465.41081
465.74034
466.05992
466.37004
466.67113
466.96364
467.24796
467.52446
467.7935
468.05539
468.31046
468.55899
468.80126
469.03753
469.26804
469.49302
469.7127
469.92727
470.13695
470.34191
470.54233
470.73838
470.93022
471.118
471.30187
471.48196
471.65842
471.83136
472.0009
472.16717
472.33027
472.4903
472.64738
472.80159
472.95303
473.1018
473.24797
473.39163
473.53286
473.67174
473.80835
473.94274
474.075
474.20518
474.33334
474.45954
474.58379
474.70614
474.82656
474.94502
475.06136
475.1754
475.2867
475.39466
475.49821
475.59579
475.6848
475.76164
475.82048
475.85425
483.08187
465.32213
454.20432
447.70644
444.28314
442.7997
442.49922
442.89929
443.69851
444.71051
445.82106
446.96109
448.08995
449.18481
450.23398
451.23259
452.17977
453.07692
453.92659
454.73183
455.49578
456.22149
456.9118
457.56934
458.19648
458.79541
459.36811
459.91638
460.44188
460.94609
461.43041
461.89609
462.34429
462.77605
463.19235
463.59408
463.98206
464.35705
464.71974
465.0708
465.41081
465.74034
466.05992
466.37004
466.67113
466.96364
467.24796
467.52446
467.7935
468.05539
468.31046
468.55899
468.80126
469.03753
469.26804
469.49302
469.7127
469.92727
470.13695
470.34191
470.54233
470.73838
470.93022
471.118
471.30187
471.48196
471.65842
471.83136
472.0009
472.16717
472.33027
472.4903
472.64738
472.80159
472.95303
473.1018
473.24797
473.39163
473.53286
473.67174
473.80835
473.94274
474.075
474.20518
474.33334
474.45954
474.58379
474.70614
474.82656
474.94502
475.06136
475.1754
475.2867
475.39466
475.49821
475.59579
475.6848
475.76164
475.82048
475.85425
477.57306
455.75423
443.08465
436.1139
432.66411
431.33411
431.25767
431.90671
432.95982
434.22118
435.57191
436.94073
438.28614
439.58533
440.82713
442.00739
443.12611
444.18552
445.18896
446.14018
447.04294
447.90084
448.71721
449.49511
450.23732
450.94636
451.62456
452.27401
452.89663
453.4942
454.06832
454.62045
455.15197
455.6641
456.15797
456.63465
457.09508
457.54016
457.97071
458.3875
458.79123
459.18258
459.56214
459.9305
460.28819
460.63572
460.97355
461.30212
461.62185
461.93312
462.2363
462.53173
462.81975
463.10064
463.37472
463.64224
463.90347
464.15865
464.40801
464.65179
464.89017
465.12338
465.35158
465.57497
465.79372
466.00799
466.21794
466.42371
466.62545
466.82331
467.01739
467.20785
467.39478
467.57832
467.75856
467.93563
468.10961
468.28061
468.44872
468.61405
468.77666
468.93666
469.0941
469.24909
469.40167
469.55193
469.69988
469.84559
469.98901
470.13014
470.2688
470.40482
470.5377
470.66686
470.79104
470.9087
471.01676
471.11138
471.18517
471.22938
477.57306
455.75423
443.08465
436.1139
432.66411
431.33411
431.25767
431.90671
432.95982
434.22118
435.57191
436.94073
438.28614
439.58533
440.82713
442.00739
443.12611
444.18552
445.18896
446.14018
447.04294
447.90084
448.71721
449.49511
450.23732
450.94636
451.62456
452.27401
452.89663
453.4942
454.06832
454.62045
455.15197
455.6641
456.15797
456.63465
457.09508
457.54016
457.97071
458.3875
458.79123
459.18258
459.56214
459.9305
460.28819
460.63572
460.97355
461.30212
461.62185
461.93312
462.2363
462.53173
462.81975
463.10064
463.37472
463.64224
463.90347
464.15865
464.40801
464.65179
464.89017
465.12338
465.35158
465.57497
465.79372
466.00799
466.21794
466.42371
466.62545
466.82331
467.01739
467.20785
467.39478
467.57832
467.75856
467.93563
468.10961
468.28061
468.44872
468.61405
468.77666
468.93666
469.0941
469.24909
469.40167
469.55193
469.69988
469.84559
469.98901
470.13014
470.2688
470.40482
470.5377
470.66686
470.79104
470.9087
471.01676
471.11138
471.18517
471.22938
477.57306
455.75423
443.08465
436.1139
432.66411
431.33411
431.25767
431.90671
432.95982
434.22118
435.57191
436.94073
438.28614
439.58533
440.82713
442.00739
443.12611
444.18552
445.18896
446.14018
447.04294
447.90084
448.71721
449.49511
450.23732
450.94636
451.62456
452.27401
452.89663
453.4942
454.06832
454.62045
455.15197
455.6641
456.15797
456.63465
457.09508
457.54016
457.97071
458.3875
458.79123
459.18258
459.56214
459.9305
460.28819
460.63572
460.97355
461.30212
461.62185
461.93312
462.2363
462.53173
462.81975
463.10064
463.37472
463.64224
463.90347
464.15865
464.40801
464.65179
464.89017
465.12338
465.35158
465.57497
465.79372
466.00799
466.21794
466.42371
466.62545
466.82331
467.01739
467.20785
467.39478
467.57832
467.75856
467.93563
468.10961
468.28061
468.44872
468.61405
468.77666
468.93666
469.0941
469.24909
469.40167
469.55193
469.69988
469.84559
469.98901
470.13014
470.2688
470.40482
470.5377
470.66686
470.79104
470.9087
471.01676
471.11138
471.18517
471.22938
477.57306
455.75423
443.08465
436.1139
432.66411
431.33411
431.25767
431.90671
432.95982
434.22118
435.57191
436.94073
438.28614
439.58533
440.82713
442.00739
443.12611
444.18552
445.18896
446.14018
447.04294
447.90084
448.71721
449.49511
450.23732
450.94636
451.62456
452.27401
452.89663
453.4942
454.06832
454.62045
455.15197
455.6641
456.15797
456.63465
457.09508
457.54016
457.97071
458.3875
458.79123
459.18258
459.56214
459.9305
460.28819
460.63572
460.97355
461.30212
461.62185
461.93312
462.2363
462.53173
462.81975
463.10064
463.37472
463.64224
463.90347
464.15865
464.40801
464.65179
464.89017
465.12338
465.35158
465.57497
465.79372
466.00799
466.21794
466.42371
466.62545
466.82331
467.01739
467.20785
467.39478
467.57832
467.75856
467.93563
468.10961
468.28061
468.44872
468.61405
468.77666
468.93666
469.0941
469.24909
469.40167
469.55193
469.69988
469.84559
469.98901
470.13014
470.2688
470.40482
470.5377
470.66686
470.79104
470.9087
471.01676
471.11138
471.18517
471.22938
470.02132
444.11697
430.51613
423.59089
420.45462
419.48674
419.7595
420.73178
422.08221
423.61766
425.22197
426.82606
428.39039
429.89391
431.32704
432.68709
433.97532
435.19502
436.35044
437.44607
438.48633
439.47533
440.41688
441.31444
442.17115
442.98989
443.77327
444.52368
445.24332
445.93418
446.59811
447.23678
447.85173
448.44439
449.01604
449.56789
450.10103
450.61649
451.1152
451.59805
452.06585
452.51935
452.95927
453.38625
453.80092
454.20385
454.59559
454.97663
455.34745
455.7085
456.0602
456.40295
456.73712
457.06306
457.38111
457.69158
457.99477
458.29096
458.58042
458.86341
459.14017
459.41092
459.6759
459.93529
460.18931
460.43814
460.68197
460.92096
461.15528
461.3851
461.61055
461.83179
462.04895
462.26218
462.47158
462.67731
462.87945
463.07815
463.27349
463.4656
463.65457
463.8405
464.02348
464.2036
464.38094
464.55558
464.72756
464.89696
465.06371
465.22787
465.3892
465.54762
465.70251
465.85343
465.99889
466.13758
466.26582
466.38018
466.47117
466.52937
470.02132
444.11697
430.51613
423.59089
420.45462
419.48674
419.7595
420.73178
422.08221
423.61766
425.22197
426.82606
428.39039
429.89391
431.32704
432.68709
433.97532
435.19502
436.35044
437.44607
438.48633
439.47533
440.41688
441.31444
442.17115
442.98989
443.77327
444.52368
445.24332
445.93418
446.59811
447.23678
447.85173
448.44439
449.01604
449.56789
450.10103
450.61649
451.1152
451.59805
452.06585
452.51935
452.95927
453.38625
453.80092
454.20385
454.59559
454.97663
455.34745
455.7085
456.0602
456.40295
456.73712
457.06306
457.38111
457.69158
457.99477
458.29096