/*--------------------------------*- C++ -*----------------------------------*\
  =========                 |
  \\      /  F ield         | OpenFOAM: The Open Source CFD Toolbox
   \\    /   O peration     | Website:  https://openfoam.org
    \\  /    A nd           | Version:  8
     \\/     M anipulation  |
\*---------------------------------------------------------------------------*/
FoamFile
{
    version     2.0;
    format      ascii;
    class       volVectorField;
    location    "0";
    object      U;
}
// * * * * * * * * * * * * * * * * * * * * * * * * * * * * * * * * * * * * * //

dimensions      [0 1 -1 0 0 0 0];

internalField   nonuniform List<vector> 
40000
(
(4.0443731e-10 -1.8020382e-10 -1.9091467e-27)
(9.8481772e-10 -1.0307224e-10 -3.2693139e-41)
(1.2935627e-09 -6.2184223e-11 1.5103772e-26)
(1.4655885e-09 -2.4354326e-11 1.8369526e-26)
(1.5053972e-09 -1.7111983e-12 -2.1910733e-26)
(1.4789422e-09 1.221014e-11 4.3112009e-26)
(1.409128e-09 2.0124624e-11 2.3278949e-26)
(1.3165661e-09 2.4392019e-11 -1.7622012e-26)
(1.2121961e-09 2.6307894e-11 1.9044515e-26)
(1.1038437e-09 2.6632848e-11 2.3097424e-27)
(9.9676212e-10 2.5846091e-11 -5.6889574e-26)
(8.9475281e-10 2.4276179e-11 7.0176573e-28)
(8.0027849e-10 2.2245194e-11 4.8204444e-26)
(7.1472329e-10 1.9959333e-11 2.3078649e-27)
(6.3871092e-10 1.7606439e-11 1.0179126e-27)
(5.722046e-10 1.5316924e-11 -6.9435321e-27)
(5.1470172e-10 1.319581e-11 -1.4499643e-26)
(4.6536955e-10 1.1297866e-11 1.4434384e-26)
(4.2323118e-10 9.6468647e-12 1.2794058e-26)
(3.8727129e-10 8.2393141e-12 4.7622632e-28)
(3.5653664e-10 7.0534126e-12 -9.085148e-27)
(3.3018395e-10 6.0611268e-12 -4.5979888e-27)
(3.0748895e-10 5.233257e-12 1.3486364e-26)
(2.8784565e-10 4.5413123e-12 4.4234996e-27)
(2.707551e-10 3.9613166e-12 -3.3418084e-27)
(2.5580824e-10 3.4729453e-12 4.0131376e-28)
(2.4267175e-10 3.0595501e-12 3.8615429e-27)
(2.3107146e-10 2.7079844e-12 -9.6300726e-27)
(2.2078e-10 2.4076915e-12 -3.0525437e-27)
(2.1160732e-10 2.1510501e-12 9.4254076e-27)
(2.0339461e-10 1.9299027e-12 2.2290668e-28)
(1.9600885e-10 1.7392598e-12 2.9841412e-27)
(1.8933916e-10 1.5733918e-12 2.7259763e-28)
(1.8329294e-10 1.4288341e-12 -1.3124695e-26)
(1.7779149e-10 1.3021155e-12 -2.5325739e-27)
(1.7276847e-10 1.1906306e-12 7.5613232e-27)
(1.6816778e-10 1.0921876e-12 7.3246152e-27)
(1.6394117e-10 1.0043739e-12 2.572563e-27)
(1.600478e-10 9.2685223e-13 -6.8874765e-27)
(1.5645109e-10 8.5724014e-13 -8.9477319e-27)
(1.5311975e-10 7.9463096e-13 2.2593153e-27)
(1.5002711e-10 7.3851492e-13 8.760285e-27)
(1.4714948e-10 6.876348e-13 -2.0480205e-27)
(1.4446624e-10 6.4198041e-13 -4.1583167e-27)
(1.4195966e-10 6.0013515e-13 2.0694663e-27)
(1.3961373e-10 5.6211456e-13 1.619298e-29)
(1.3741362e-10 5.2741439e-13 -4.4035701e-41)
(1.3534652e-10 4.9645129e-13 3.9417467e-27)
(1.3340019e-10 4.6761963e-13 4.0359521e-29)
(1.3156383e-10 4.4156617e-13 5.0817107e-29)
(1.2982843e-10 4.1775518e-13 -1.8287162e-27)
(1.281847e-10 3.9582484e-13 2.2735427e-29)
(1.2662505e-10 3.757443e-13 1.8736818e-27)
(1.251427e-10 3.5769514e-13 4.1186375e-29)
(1.2373098e-10 3.4060678e-13 3.6164509e-27)
(1.2238353e-10 3.2568213e-13 -3.4634937e-27)
(1.2109514e-10 3.1142253e-13 -3.4832302e-27)
(1.1986051e-10 2.9861052e-13 6.9651048e-27)
(1.1867579e-10 2.8681155e-13 -1.6579622e-27)
(1.1753687e-10 2.761438e-13 -3.37442e-27)
(1.1643893e-10 2.6638856e-13 2.2956684e-29)
(1.1537828e-10 2.5753302e-13 3.3432114e-27)
(1.1435238e-10 2.4904999e-13 -1.6102913e-27)
(1.1335724e-10 2.4218064e-13 -3.2704505e-27)
(1.1239052e-10 2.3531415e-13 1.3522613e-29)
(1.1144947e-10 2.2971843e-13 -6.6001638e-30)
(1.1053115e-10 2.2422315e-13 2.5756129e-29)
(1.0963234e-10 2.1975669e-13 -3.1696965e-27)
(1.087521e-10 2.1510775e-13 3.1319107e-27)
(1.0788704e-10 2.1198828e-13 1.215758e-29)
(1.0703623e-10 2.0846869e-13 -1.5293387e-27)
(1.0619677e-10 2.066615e-13 5.9365058e-30)
(1.053668e-10 2.034837e-13 -1.6883809e-41)
(1.0454402e-10 2.0276896e-13 1.1645292e-29)
(1.0372828e-10 2.0048708e-13 1.1493576e-29)
(1.029153e-10 2.0095296e-13 4.469047e-27)
(1.0210586e-10 1.9936322e-13 1.5046381e-27)
(1.0129656e-10 2.0052253e-13 -2.9114152e-27)
(1.0048873e-10 1.995085e-13 -2.888124e-27)
(9.967722e-11 2.0176553e-13 -1.4467332e-27)
(9.8864038e-11 2.0079388e-13 5.7745301e-30)
(9.804517e-11 2.0453831e-13 1.7635666e-29)
(9.7223963e-11 2.0270562e-13 1.417128e-27)
(9.6393824e-11 2.078416e-13 4.1864329e-27)
(9.5561427e-11 2.0534045e-13 1.405067e-27)
(9.471536e-11 2.1240321e-13 -4.0831461e-27)
(9.3873209e-11 2.0785531e-13 -1.3450539e-27)
(9.3004013e-11 2.1950261e-13 2.7016068e-27)
(9.2151723e-11 2.0925274e-13 4.0085284e-27)
(9.124762e-11 2.3179671e-13 4.0093761e-29)
(9.0385713e-11 2.0935038e-13 -2.5951742e-27)
(8.941238e-11 2.5721429e-13 2.9719204e-29)
(8.8528639e-11 2.1000899e-13 -2.5474613e-27)
(8.7400411e-11 3.1446574e-13 -9.0763979e-30)
(8.6456025e-11 2.1332654e-13 1.8483801e-29)
(8.5009114e-11 4.2992586e-13 -1.2040629e-27)
(8.3956991e-11 1.9625092e-13 5.650059e-30)
(8.2070592e-11 5.9041417e-13 1.1864113e-27)
(8.1091761e-11 2.2006927e-14 3.5181144e-27)
(7.9479689e-11 5.7951593e-13 -3.3296705e-27)
(4.0443731e-10 -1.8020382e-10 -1.9091467e-27)
(9.8481772e-10 -1.0307224e-10 -3.2693139e-41)
(1.2935627e-09 -6.2184223e-11 1.5103772e-26)
(1.4655885e-09 -2.4354326e-11 1.8369526e-26)
(1.5053972e-09 -1.7111983e-12 -2.1910733e-26)
(1.4789422e-09 1.221014e-11 4.3112009e-26)
(1.409128e-09 2.0124624e-11 2.3278949e-26)
(1.3165661e-09 2.4392019e-11 -1.7622012e-26)
(1.2121961e-09 2.6307894e-11 1.9044515e-26)
(1.1038437e-09 2.6632848e-11 2.3097424e-27)
(9.9676212e-10 2.5846091e-11 -5.6889574e-26)
(8.9475281e-10 2.4276179e-11 7.0176573e-28)
(8.0027849e-10 2.2245194e-11 4.8204444e-26)
(7.1472329e-10 1.9959333e-11 2.3078649e-27)
(6.3871092e-10 1.7606439e-11 1.0179126e-27)
(5.722046e-10 1.5316924e-11 -6.9435321e-27)
(5.1470172e-10 1.319581e-11 -1.4499643e-26)
(4.6536955e-10 1.1297866e-11 1.4434384e-26)
(4.2323118e-10 9.6468647e-12 1.2794058e-26)
(3.8727129e-10 8.2393141e-12 4.7622632e-28)
(3.5653664e-10 7.0534126e-12 -9.085148e-27)
(3.3018395e-10 6.0611268e-12 -4.5979888e-27)
(3.0748895e-10 5.233257e-12 1.3486364e-26)
(2.8784565e-10 4.5413123e-12 4.4234996e-27)
(2.707551e-10 3.9613166e-12 -3.3418084e-27)
(2.5580824e-10 3.4729453e-12 4.0131376e-28)
(2.4267175e-10 3.0595501e-12 3.8615429e-27)
(2.3107146e-10 2.7079844e-12 -9.6300726e-27)
(2.2078e-10 2.4076915e-12 -3.0525437e-27)
(2.1160732e-10 2.1510501e-12 9.4254076e-27)
(2.0339461e-10 1.9299027e-12 2.2290668e-28)
(1.9600885e-10 1.7392598e-12 2.9841412e-27)
(1.8933916e-10 1.5733918e-12 2.7259763e-28)
(1.8329294e-10 1.4288341e-12 -1.3124695e-26)
(1.7779149e-10 1.3021155e-12 -2.5325739e-27)
(1.7276847e-10 1.1906306e-12 7.5613232e-27)
(1.6816778e-10 1.0921876e-12 7.3246152e-27)
(1.6394117e-10 1.0043739e-12 2.572563e-27)
(1.600478e-10 9.2685223e-13 -6.8874765e-27)
(1.5645109e-10 8.5724014e-13 -8.9477319e-27)
(1.5311975e-10 7.9463096e-13 2.2593153e-27)
(1.5002711e-10 7.3851492e-13 8.760285e-27)
(1.4714948e-10 6.876348e-13 -2.0480205e-27)
(1.4446624e-10 6.4198041e-13 -4.1583167e-27)
(1.4195966e-10 6.0013515e-13 2.0694663e-27)
(1.3961373e-10 5.6211456e-13 1.619298e-29)
(1.3741362e-10 5.2741439e-13 -4.4035701e-41)
(1.3534652e-10 4.9645129e-13 3.9417467e-27)
(1.3340019e-10 4.6761963e-13 4.0359521e-29)
(1.3156383e-10 4.4156617e-13 5.0817107e-29)
(1.2982843e-10 4.1775518e-13 -1.8287162e-27)
(1.281847e-10 3.9582484e-13 2.2735427e-29)
(1.2662505e-10 3.757443e-13 1.8736818e-27)
(1.251427e-10 3.5769514e-13 4.1186375e-29)
(1.2373098e-10 3.4060678e-13 3.6164509e-27)
(1.2238353e-10 3.2568213e-13 -3.4634937e-27)
(1.2109514e-10 3.1142253e-13 -3.4832302e-27)
(1.1986051e-10 2.9861052e-13 6.9651048e-27)
(1.1867579e-10 2.8681155e-13 -1.6579622e-27)
(1.1753687e-10 2.761438e-13 -3.37442e-27)
(1.1643893e-10 2.6638856e-13 2.2956684e-29)
(1.1537828e-10 2.5753302e-13 3.3432114e-27)
(1.1435238e-10 2.4904999e-13 -1.6102913e-27)
(1.1335724e-10 2.4218064e-13 -3.2704505e-27)
(1.1239052e-10 2.3531415e-13 1.3522613e-29)
(1.1144947e-10 2.2971843e-13 -6.6001638e-30)
(1.1053115e-10 2.2422315e-13 2.5756129e-29)
(1.0963234e-10 2.1975669e-13 -3.1696965e-27)
(1.087521e-10 2.1510775e-13 3.1319107e-27)
(1.0788704e-10 2.1198828e-13 1.215758e-29)
(1.0703623e-10 2.0846869e-13 -1.5293387e-27)
(1.0619677e-10 2.066615e-13 5.9365058e-30)
(1.053668e-10 2.034837e-13 -1.6883809e-41)
(1.0454402e-10 2.0276896e-13 1.1645292e-29)
(1.0372828e-10 2.0048708e-13 1.1493576e-29)
(1.029153e-10 2.0095296e-13 4.469047e-27)
(1.0210586e-10 1.9936322e-13 1.5046381e-27)
(1.0129656e-10 2.0052253e-13 -2.9114152e-27)
(1.0048873e-10 1.995085e-13 -2.888124e-27)
(9.967722e-11 2.0176553e-13 -1.4467332e-27)
(9.8864038e-11 2.0079388e-13 5.7745301e-30)
(9.804517e-11 2.0453831e-13 1.7635666e-29)
(9.7223963e-11 2.0270562e-13 1.417128e-27)
(9.6393824e-11 2.078416e-13 4.1864329e-27)
(9.5561427e-11 2.0534045e-13 1.405067e-27)
(9.471536e-11 2.1240321e-13 -4.0831461e-27)
(9.3873209e-11 2.0785531e-13 -1.3450539e-27)
(9.3004013e-11 2.1950261e-13 2.7016068e-27)
(9.2151723e-11 2.0925274e-13 4.0085284e-27)
(9.124762e-11 2.3179671e-13 4.0093761e-29)
(9.0385713e-11 2.0935038e-13 -2.5951742e-27)
(8.941238e-11 2.5721429e-13 2.9719204e-29)
(8.8528639e-11 2.1000899e-13 -2.5474613e-27)
(8.7400411e-11 3.1446574e-13 -9.0763979e-30)
(8.6456025e-11 2.1332654e-13 1.8483801e-29)
(8.5009114e-11 4.2992586e-13 -1.2040629e-27)
(8.3956991e-11 1.9625092e-13 5.650059e-30)
(8.2070592e-11 5.9041417e-13 1.1864113e-27)
(8.1091761e-11 2.2006927e-14 3.5181144e-27)
(7.9479689e-11 5.7951593e-13 -3.3296705e-27)
(4.0443731e-10 -1.8020382e-10 -1.9091467e-27)
(9.8481772e-10 -1.0307224e-10 -3.2693139e-41)
(1.2935627e-09 -6.2184223e-11 1.5103772e-26)
(1.4655885e-09 -2.4354326e-11 1.8369526e-26)
(1.5053972e-09 -1.7111983e-12 -2.1910733e-26)
(1.4789422e-09 1.221014e-11 4.3112009e-26)
(1.409128e-09 2.0124624e-11 2.3278949e-26)
(1.3165661e-09 2.4392019e-11 -1.7622012e-26)
(1.2121961e-09 2.6307894e-11 1.9044515e-26)
(1.1038437e-09 2.6632848e-11 2.3097424e-27)
(9.9676212e-10 2.5846091e-11 -5.6889574e-26)
(8.9475281e-10 2.4276179e-11 7.0176573e-28)
(8.0027849e-10 2.2245194e-11 4.8204444e-26)
(7.1472329e-10 1.9959333e-11 2.3078649e-27)
(6.3871092e-10 1.7606439e-11 1.0179126e-27)
(5.722046e-10 1.5316924e-11 -6.9435321e-27)
(5.1470172e-10 1.319581e-11 -1.4499643e-26)
(4.6536955e-10 1.1297866e-11 1.4434384e-26)
(4.2323118e-10 9.6468647e-12 1.2794058e-26)
(3.8727129e-10 8.2393141e-12 4.7622632e-28)
(3.5653664e-10 7.0534126e-12 -9.085148e-27)
(3.3018395e-10 6.0611268e-12 -4.5979888e-27)
(3.0748895e-10 5.233257e-12 1.3486364e-26)
(2.8784565e-10 4.5413123e-12 4.4234996e-27)
(2.707551e-10 3.9613166e-12 -3.3418084e-27)
(2.5580824e-10 3.4729453e-12 4.0131376e-28)
(2.4267175e-10 3.0595501e-12 3.8615429e-27)
(2.3107146e-10 2.7079844e-12 -9.6300726e-27)
(2.2078e-10 2.4076915e-12 -3.0525437e-27)
(2.1160732e-10 2.1510501e-12 9.4254076e-27)
(2.0339461e-10 1.9299027e-12 2.2290668e-28)
(1.9600885e-10 1.7392598e-12 2.9841412e-27)
(1.8933916e-10 1.5733918e-12 2.7259763e-28)
(1.8329294e-10 1.4288341e-12 -1.3124695e-26)
(1.7779149e-10 1.3021155e-12 -2.5325739e-27)
(1.7276847e-10 1.1906306e-12 7.5613232e-27)
(1.6816778e-10 1.0921876e-12 7.3246152e-27)
(1.6394117e-10 1.0043739e-12 2.572563e-27)
(1.600478e-10 9.2685223e-13 -6.8874765e-27)
(1.5645109e-10 8.5724014e-13 -8.9477319e-27)
(1.5311975e-10 7.9463096e-13 2.2593153e-27)
(1.5002711e-10 7.3851492e-13 8.760285e-27)
(1.4714948e-10 6.876348e-13 -2.0480205e-27)
(1.4446624e-10 6.4198041e-13 -4.1583167e-27)
(1.4195966e-10 6.0013515e-13 2.0694663e-27)
(1.3961373e-10 5.6211456e-13 1.619298e-29)
(1.3741362e-10 5.2741439e-13 -4.4035701e-41)
(1.3534652e-10 4.9645129e-13 3.9417467e-27)
(1.3340019e-10 4.6761963e-13 4.0359521e-29)
(1.3156383e-10 4.4156617e-13 5.0817107e-29)
(1.2982843e-10 4.1775518e-13 -1.8287162e-27)
(1.281847e-10 3.9582484e-13 2.2735427e-29)
(1.2662505e-10 3.757443e-13 1.8736818e-27)
(1.251427e-10 3.5769514e-13 4.1186375e-29)
(1.2373098e-10 3.4060678e-13 3.6164509e-27)
(1.2238353e-10 3.2568213e-13 -3.4634937e-27)
(1.2109514e-10 3.1142253e-13 -3.4832302e-27)
(1.1986051e-10 2.9861052e-13 6.9651048e-27)
(1.1867579e-10 2.8681155e-13 -1.6579622e-27)
(1.1753687e-10 2.761438e-13 -3.37442e-27)
(1.1643893e-10 2.6638856e-13 2.2956684e-29)
(1.1537828e-10 2.5753302e-13 3.3432114e-27)
(1.1435238e-10 2.4904999e-13 -1.6102913e-27)
(1.1335724e-10 2.4218064e-13 -3.2704505e-27)
(1.1239052e-10 2.3531415e-13 1.3522613e-29)
(1.1144947e-10 2.2971843e-13 -6.6001638e-30)
(1.1053115e-10 2.2422315e-13 2.5756129e-29)
(1.0963234e-10 2.1975669e-13 -3.1696965e-27)
(1.087521e-10 2.1510775e-13 3.1319107e-27)
(1.0788704e-10 2.1198828e-13 1.215758e-29)
(1.0703623e-10 2.0846869e-13 -1.5293387e-27)
(1.0619677e-10 2.066615e-13 5.9365058e-30)
(1.053668e-10 2.034837e-13 -1.6883809e-41)
(1.0454402e-10 2.0276896e-13 1.1645292e-29)
(1.0372828e-10 2.0048708e-13 1.1493576e-29)
(1.029153e-10 2.0095296e-13 4.469047e-27)
(1.0210586e-10 1.9936322e-13 1.5046381e-27)
(1.0129656e-10 2.0052253e-13 -2.9114152e-27)
(1.0048873e-10 1.995085e-13 -2.888124e-27)
(9.967722e-11 2.0176553e-13 -1.4467332e-27)
(9.8864038e-11 2.0079388e-13 5.7745301e-30)
(9.804517e-11 2.0453831e-13 1.7635666e-29)
(9.7223963e-11 2.0270562e-13 1.417128e-27)
(9.6393824e-11 2.078416e-13 4.1864329e-27)
(9.5561427e-11 2.0534045e-13 1.405067e-27)
(9.471536e-11 2.1240321e-13 -4.0831461e-27)
(9.3873209e-11 2.0785531e-13 -1.3450539e-27)
(9.3004013e-11 2.1950261e-13 2.7016068e-27)
(9.2151723e-11 2.0925274e-13 4.0085284e-27)
(9.124762e-11 2.3179671e-13 4.0093761e-29)
(9.0385713e-11 2.0935038e-13 -2.5951742e-27)
(8.941238e-11 2.5721429e-13 2.9719204e-29)
(8.8528639e-11 2.1000899e-13 -2.5474613e-27)
(8.7400411e-11 3.1446574e-13 -9.0763979e-30)
(8.6456025e-11 2.1332654e-13 1.8483801e-29)
(8.5009114e-11 4.2992586e-13 -1.2040629e-27)
(8.3956991e-11 1.9625092e-13 5.650059e-30)
(8.2070592e-11 5.9041417e-13 1.1864113e-27)
(8.1091761e-11 2.2006927e-14 3.5181144e-27)
(7.9479689e-11 5.7951593e-13 -3.3296705e-27)
(4.0443731e-10 -1.8020382e-10 -1.9091467e-27)
(9.8481772e-10 -1.0307224e-10 -3.2693139e-41)
(1.2935627e-09 -6.2184223e-11 1.5103772e-26)
(1.4655885e-09 -2.4354326e-11 1.8369526e-26)
(1.5053972e-09 -1.7111983e-12 -2.1910733e-26)
(1.4789422e-09 1.221014e-11 4.3112009e-26)
(1.409128e-09 2.0124624e-11 2.3278949e-26)
(1.3165661e-09 2.4392019e-11 -1.7622012e-26)
(1.2121961e-09 2.6307894e-11 1.9044515e-26)
(1.1038437e-09 2.6632848e-11 2.3097424e-27)
(9.9676212e-10 2.5846091e-11 -5.6889574e-26)
(8.9475281e-10 2.4276179e-11 7.0176573e-28)
(8.0027849e-10 2.2245194e-11 4.8204444e-26)
(7.1472329e-10 1.9959333e-11 2.3078649e-27)
(6.3871092e-10 1.7606439e-11 1.0179126e-27)
(5.722046e-10 1.5316924e-11 -6.9435321e-27)
(5.1470172e-10 1.319581e-11 -1.4499643e-26)
(4.6536955e-10 1.1297866e-11 1.4434384e-26)
(4.2323118e-10 9.6468647e-12 1.2794058e-26)
(3.8727129e-10 8.2393141e-12 4.7622632e-28)
(3.5653664e-10 7.0534126e-12 -9.085148e-27)
(3.3018395e-10 6.0611268e-12 -4.5979888e-27)
(3.0748895e-10 5.233257e-12 1.3486364e-26)
(2.8784565e-10 4.5413123e-12 4.4234996e-27)
(2.707551e-10 3.9613166e-12 -3.3418084e-27)
(2.5580824e-10 3.4729453e-12 4.0131376e-28)
(2.4267175e-10 3.0595501e-12 3.8615429e-27)
(2.3107146e-10 2.7079844e-12 -9.6300726e-27)
(2.2078e-10 2.4076915e-12 -3.0525437e-27)
(2.1160732e-10 2.1510501e-12 9.4254076e-27)
(2.0339461e-10 1.9299027e-12 2.2290668e-28)
(1.9600885e-10 1.7392598e-12 2.9841412e-27)
(1.8933916e-10 1.5733918e-12 2.7259763e-28)
(1.8329294e-10 1.4288341e-12 -1.3124695e-26)
(1.7779149e-10 1.3021155e-12 -2.5325739e-27)
(1.7276847e-10 1.1906306e-12 7.5613232e-27)
(1.6816778e-10 1.0921876e-12 7.3246152e-27)
(1.6394117e-10 1.0043739e-12 2.572563e-27)
(1.600478e-10 9.2685223e-13 -6.8874765e-27)
(1.5645109e-10 8.5724014e-13 -8.9477319e-27)
(1.5311975e-10 7.9463096e-13 2.2593153e-27)
(1.5002711e-10 7.3851492e-13 8.760285e-27)
(1.4714948e-10 6.876348e-13 -2.0480205e-27)
(1.4446624e-10 6.4198041e-13 -4.1583167e-27)
(1.4195966e-10 6.0013515e-13 2.0694663e-27)
(1.3961373e-10 5.6211456e-13 1.619298e-29)
(1.3741362e-10 5.2741439e-13 -4.4035701e-41)
(1.3534652e-10 4.9645129e-13 3.9417467e-27)
(1.3340019e-10 4.6761963e-13 4.0359521e-29)
(1.3156383e-10 4.4156617e-13 5.0817107e-29)
(1.2982843e-10 4.1775518e-13 -1.8287162e-27)
(1.281847e-10 3.9582484e-13 2.2735427e-29)
(1.2662505e-10 3.757443e-13 1.8736818e-27)
(1.251427e-10 3.5769514e-13 4.1186375e-29)
(1.2373098e-10 3.4060678e-13 3.6164509e-27)
(1.2238353e-10 3.2568213e-13 -3.4634937e-27)
(1.2109514e-10 3.1142253e-13 -3.4832302e-27)
(1.1986051e-10 2.9861052e-13 6.9651048e-27)
(1.1867579e-10 2.8681155e-13 -1.6579622e-27)
(1.1753687e-10 2.761438e-13 -3.37442e-27)
(1.1643893e-10 2.6638856e-13 2.2956684e-29)
(1.1537828e-10 2.5753302e-13 3.3432114e-27)
(1.1435238e-10 2.4904999e-13 -1.6102913e-27)
(1.1335724e-10 2.4218064e-13 -3.2704505e-27)
(1.1239052e-10 2.3531415e-13 1.3522613e-29)
(1.1144947e-10 2.2971843e-13 -6.6001638e-30)
(1.1053115e-10 2.2422315e-13 2.5756129e-29)
(1.0963234e-10 2.1975669e-13 -3.1696965e-27)
(1.087521e-10 2.1510775e-13 3.1319107e-27)
(1.0788704e-10 2.1198828e-13 1.215758e-29)
(1.0703623e-10 2.0846869e-13 -1.5293387e-27)
(1.0619677e-10 2.066615e-13 5.9365058e-30)
(1.053668e-10 2.034837e-13 -1.6883809e-41)
(1.0454402e-10 2.0276896e-13 1.1645292e-29)
(1.0372828e-10 2.0048708e-13 1.1493576e-29)
(1.029153e-10 2.0095296e-13 4.469047e-27)
(1.0210586e-10 1.9936322e-13 1.5046381e-27)
(1.0129656e-10 2.0052253e-13 -2.9114152e-27)
(1.0048873e-10 1.995085e-13 -2.888124e-27)
(9.967722e-11 2.0176553e-13 -1.4467332e-27)
(9.8864038e-11 2.0079388e-13 5.7745301e-30)
(9.804517e-11 2.0453831e-13 1.7635666e-29)
(9.7223963e-11 2.0270562e-13 1.417128e-27)
(9.6393824e-11 2.078416e-13 4.1864329e-27)
(9.5561427e-11 2.0534045e-13 1.405067e-27)
(9.471536e-11 2.1240321e-13 -4.0831461e-27)
(9.3873209e-11 2.0785531e-13 -1.3450539e-27)
(9.3004013e-11 2.1950261e-13 2.7016068e-27)
(9.2151723e-11 2.0925274e-13 4.0085284e-27)
(9.124762e-11 2.3179671e-13 4.0093761e-29)
(9.0385713e-11 2.0935038e-13 -2.5951742e-27)
(8.941238e-11 2.5721429e-13 2.9719204e-29)
(8.8528639e-11 2.1000899e-13 -2.5474613e-27)
(8.7400411e-11 3.1446574e-13 -9.0763979e-30)
(8.6456025e-11 2.1332654e-13 1.8483801e-29)
(8.5009114e-11 4.2992586e-13 -1.2040629e-27)
(8.3956991e-11 1.9625092e-13 5.650059e-30)
(8.2070592e-11 5.9041417e-13 1.1864113e-27)
(8.1091761e-11 2.2006927e-14 3.5181144e-27)
(7.9479689e-11 5.7951593e-13 -3.3296705e-27)
(4.4499942e-10 -5.5635094e-10 -3.2197139e-27)
(1.052651e-09 -3.0948528e-10 1.521708e-26)
(1.3482682e-09 -1.8683473e-10 1.9490517e-26)
(1.5161898e-09 -7.2150349e-11 4.172665e-27)
(1.5463465e-09 -4.0652468e-12 -4.5061398e-26)
(1.5129991e-09 3.754071e-11 4.3743724e-26)
(1.4375486e-09 6.1151039e-11 -3.5353784e-27)
(1.3404664e-09 7.3854388e-11 -7.7511007e-26)
(1.2322489e-09 7.9530479e-11 3.1028513e-26)
(1.1205554e-09 8.0435989e-11 -1.6198723e-26)
(1.0105726e-09 7.7998927e-11 -4.5096264e-27)
(9.0611432e-10 7.3203299e-11 5.66274e-26)
(8.0963012e-10 6.7032166e-11 9.7662476e-27)
(7.2245545e-10 6.0102e-11 -3.1331383e-26)
(6.4517724e-10 5.2981787e-11 -7.7951217e-27)
(5.7770631e-10 4.6062776e-11 1.5371135e-26)
(5.1948449e-10 3.9661497e-11 1.1464161e-27)
(4.6961714e-10 3.3941549e-11 -8.7508511e-27)
(4.2707667e-10 2.897268e-11 -7.0111871e-27)
(3.9080464e-10 2.4740773e-11 1.0583895e-26)
(3.5981768e-10 2.1178971e-11 4.5894613e-27)
(3.3325375e-10 1.8199246e-11 -9.6350178e-27)
(3.1037586e-10 1.5714335e-11 -8.9735594e-27)
(2.9057048e-10 1.3638359e-11 1.1419215e-26)
(2.733346e-10 1.1898583e-11 1.1510154e-26)
(2.5825622e-10 1.0433285e-11 -3.7333406e-27)
(2.4500031e-10 9.1923219e-12 -2.6554355e-28)
(2.3329147e-10 8.1365032e-12 -1.0587414e-26)
(2.2290157e-10 7.2361049e-12 -3.2223313e-40)
(2.1363885e-10 6.4648159e-12 9.0784004e-27)
(2.0534341e-10 5.8013932e-12 -3.3034891e-27)
(1.9788148e-10 5.2284033e-12 2.7096148e-27)
(1.9114126e-10 4.7311222e-12 -2.7321449e-28)
(1.8502993e-10 4.2970946e-12 -1.0823211e-26)
(1.7946808e-10 3.9164142e-12 1.1304137e-28)
(1.7438902e-10 3.5813292e-12 2.4176137e-27)
(1.6973594e-10 3.2851727e-12 4.9073909e-27)
(1.6546083e-10 3.0219769e-12 -2.6146367e-28)
(1.6152226e-10 2.7882598e-12 -1.6084719e-28)
(1.5788284e-10 2.5792359e-12 -7.4393492e-29)
(1.5451179e-10 2.3912738e-12 -2.164681e-27)
(1.5138187e-10 2.2223212e-12 4.312699e-27)
(1.4846931e-10 2.0697065e-12 -4.3522108e-27)
(1.4575312e-10 1.9317766e-12 -2.1626877e-27)
(1.4321533e-10 1.8061937e-12 -2.0703233e-27)
(1.4084014e-10 1.692066e-12 -2.0847332e-27)
(1.3861276e-10 1.5881826e-12 1.9123236e-27)
(1.3651961e-10 1.4943544e-12 1.8874975e-27)
(1.3454842e-10 1.4076844e-12 3.8495709e-27)
(1.3268878e-10 1.3294524e-12 1.8416298e-27)
(1.3093103e-10 1.2575343e-12 -1.9289249e-27)
(1.2926604e-10 1.1918592e-12 -6.8563577e-29)
(1.2768637e-10 1.1314524e-12 1.8133147e-27)
(1.2618463e-10 1.0772676e-12 0)
(1.2475458e-10 1.0263935e-12 3.6068977e-27)
(1.2338955e-10 9.8073947e-13 -3.6238328e-27)
(1.2208406e-10 9.3786113e-13 -3.5566415e-27)
(1.2083328e-10 8.9972564e-13 5.2402993e-27)
(1.1963298e-10 8.6424131e-13 -4.9670682e-29)
(1.1847909e-10 8.3225153e-13 -3.4493828e-27)
(1.1736666e-10 8.0215274e-13 -3.4163587e-27)
(1.1629183e-10 7.7627628e-13 1.6588228e-27)
(1.1525263e-10 7.5098294e-13 1.6229644e-27)
(1.1424448e-10 7.2959594e-13 -3.3030561e-27)
(1.1326503e-10 7.0900119e-13 -3.3154672e-27)
(1.1231172e-10 6.9248676e-13 3.267068e-27)
(1.113814e-10 6.7490187e-13 1.6101348e-27)
(1.1047079e-10 6.6196601e-13 -6.3878709e-27)
(1.0957934e-10 6.4800114e-13 -1.8614672e-29)
(1.0870325e-10 6.3876299e-13 4.6776149e-27)
(1.078418e-10 6.2717776e-13 1.8001615e-29)
(1.0699146e-10 6.220775e-13 -1.5466782e-27)
(1.0615121e-10 6.1274975e-13 1.5345339e-27)
(1.0531827e-10 6.1090562e-13 3.375129e-41)
(1.0449272e-10 6.0321147e-13 -1.5278662e-27)
(1.0366984e-10 6.0545501e-13 2.9625723e-27)
(1.0285068e-10 5.9963671e-13 1.4696135e-27)
(1.0203172e-10 6.0410742e-13 -2.9499441e-27)
(1.0121466e-10 5.9996475e-13 -2.9263221e-27)
(1.0039347e-10 6.0808972e-13 1.4862661e-27)
(9.9571464e-11 6.0377439e-13 2.8614567e-27)
(9.8742665e-11 6.1552431e-13 1.4097285e-27)
(9.7912764e-11 6.0937629e-13 -1.4329557e-27)
(9.7072947e-11 6.2564946e-13 -1.4033026e-27)
(9.6232279e-11 6.1732107e-13 2.7289726e-27)
(9.5375955e-11 6.3973669e-13 1.3787537e-27)
(9.4527023e-11 6.239414e-13 -1.3664888e-27)
(9.364579e-11 6.6110005e-13 -2.7646399e-27)
(9.2790044e-11 6.2654596e-13 1.3052847e-27)
(9.1870615e-11 6.9975943e-13 1.2877253e-27)
(9.101267e-11 6.2398837e-13 -1.7991066e-29)
(9.0017452e-11 7.7936758e-13 -1.3462849e-27)
(8.9153517e-11 6.197026e-13 -3.9021201e-27)
(8.7987965e-11 9.5857103e-13 1.27196e-27)
(8.7091267e-11 6.1763768e-13 1.2589999e-27)
(8.5565761e-11 1.3249107e-12 -1.2752189e-27)
(8.4594046e-11 5.4737536e-13 -1.5795413e-29)
(8.2525056e-11 1.8552017e-12 0)
(8.1620799e-11 -4.2080175e-15 2.3599713e-27)
(7.9700219e-11 1.8947685e-12 -2.5234281e-27)
(4.4499942e-10 -5.5635094e-10 -3.2197139e-27)
(1.052651e-09 -3.0948528e-10 1.521708e-26)
(1.3482682e-09 -1.8683473e-10 1.9490517e-26)
(1.5161898e-09 -7.2150349e-11 4.172665e-27)
(1.5463465e-09 -4.0652468e-12 -4.5061398e-26)
(1.5129991e-09 3.754071e-11 4.3743724e-26)
(1.4375486e-09 6.1151039e-11 -3.5353784e-27)
(1.3404664e-09 7.3854388e-11 -7.7511007e-26)
(1.2322489e-09 7.9530479e-11 3.1028513e-26)
(1.1205554e-09 8.0435989e-11 -1.6198723e-26)
(1.0105726e-09 7.7998927e-11 -4.5096264e-27)
(9.0611432e-10 7.3203299e-11 5.66274e-26)
(8.0963012e-10 6.7032166e-11 9.7662476e-27)
(7.2245545e-10 6.0102e-11 -3.1331383e-26)
(6.4517724e-10 5.2981787e-11 -7.7951217e-27)
(5.7770631e-10 4.6062776e-11 1.5371135e-26)
(5.1948449e-10 3.9661497e-11 1.1464161e-27)
(4.6961714e-10 3.3941549e-11 -8.7508511e-27)
(4.2707667e-10 2.897268e-11 -7.0111871e-27)
(3.9080464e-10 2.4740773e-11 1.0583895e-26)
(3.5981768e-10 2.1178971e-11 4.5894613e-27)
(3.3325375e-10 1.8199246e-11 -9.6350178e-27)
(3.1037586e-10 1.5714335e-11 -8.9735594e-27)
(2.9057048e-10 1.3638359e-11 1.1419215e-26)
(2.733346e-10 1.1898583e-11 1.1510154e-26)
(2.5825622e-10 1.0433285e-11 -3.7333406e-27)
(2.4500031e-10 9.1923219e-12 -2.6554355e-28)
(2.3329147e-10 8.1365032e-12 -1.0587414e-26)
(2.2290157e-10 7.2361049e-12 -3.2223313e-40)
(2.1363885e-10 6.4648159e-12 9.0784004e-27)
(2.0534341e-10 5.8013932e-12 -3.3034891e-27)
(1.9788148e-10 5.2284033e-12 2.7096148e-27)
(1.9114126e-10 4.7311222e-12 -2.7321449e-28)
(1.8502993e-10 4.2970946e-12 -1.0823211e-26)
(1.7946808e-10 3.9164142e-12 1.1304137e-28)
(1.7438902e-10 3.5813292e-12 2.4176137e-27)
(1.6973594e-10 3.2851727e-12 4.9073909e-27)
(1.6546083e-10 3.0219769e-12 -2.6146367e-28)
(1.6152226e-10 2.7882598e-12 -1.6084719e-28)
(1.5788284e-10 2.5792359e-12 -7.4393492e-29)
(1.5451179e-10 2.3912738e-12 -2.164681e-27)
(1.5138187e-10 2.2223212e-12 4.312699e-27)
(1.4846931e-10 2.0697065e-12 -4.3522108e-27)
(1.4575312e-10 1.9317766e-12 -2.1626877e-27)
(1.4321533e-10 1.8061937e-12 -2.0703233e-27)
(1.4084014e-10 1.692066e-12 -2.0847332e-27)
(1.3861276e-10 1.5881826e-12 1.9123236e-27)
(1.3651961e-10 1.4943544e-12 1.8874975e-27)
(1.3454842e-10 1.4076844e-12 3.8495709e-27)
(1.3268878e-10 1.3294524e-12 1.8416298e-27)
(1.3093103e-10 1.2575343e-12 -1.9289249e-27)
(1.2926604e-10 1.1918592e-12 -6.8563577e-29)
(1.2768637e-10 1.1314524e-12 1.8133147e-27)
(1.2618463e-10 1.0772676e-12 0)
(1.2475458e-10 1.0263935e-12 3.6068977e-27)
(1.2338955e-10 9.8073947e-13 -3.6238328e-27)
(1.2208406e-10 9.3786113e-13 -3.5566415e-27)
(1.2083328e-10 8.9972564e-13 5.2402993e-27)
(1.1963298e-10 8.6424131e-13 -4.9670682e-29)
(1.1847909e-10 8.3225153e-13 -3.4493828e-27)
(1.1736666e-10 8.0215274e-13 -3.4163587e-27)
(1.1629183e-10 7.7627628e-13 1.6588228e-27)
(1.1525263e-10 7.5098294e-13 1.6229644e-27)
(1.1424448e-10 7.2959594e-13 -3.3030561e-27)
(1.1326503e-10 7.0900119e-13 -3.3154672e-27)
(1.1231172e-10 6.9248676e-13 3.267068e-27)
(1.113814e-10 6.7490187e-13 1.6101348e-27)
(1.1047079e-10 6.6196601e-13 -6.3878709e-27)
(1.0957934e-10 6.4800114e-13 -1.8614672e-29)
(1.0870325e-10 6.3876299e-13 4.6776149e-27)
(1.078418e-10 6.2717776e-13 1.8001615e-29)
(1.0699146e-10 6.220775e-13 -1.5466782e-27)
(1.0615121e-10 6.1274975e-13 1.5345339e-27)
(1.0531827e-10 6.1090562e-13 3.375129e-41)
(1.0449272e-10 6.0321147e-13 -1.5278662e-27)
(1.0366984e-10 6.0545501e-13 2.9625723e-27)
(1.0285068e-10 5.9963671e-13 1.4696135e-27)
(1.0203172e-10 6.0410742e-13 -2.9499441e-27)
(1.0121466e-10 5.9996475e-13 -2.9263221e-27)
(1.0039347e-10 6.0808972e-13 1.4862661e-27)
(9.9571464e-11 6.0377439e-13 2.8614567e-27)
(9.8742665e-11 6.1552431e-13 1.4097285e-27)
(9.7912764e-11 6.0937629e-13 -1.4329557e-27)
(9.7072947e-11 6.2564946e-13 -1.4033026e-27)
(9.6232279e-11 6.1732107e-13 2.7289726e-27)
(9.5375955e-11 6.3973669e-13 1.3787537e-27)
(9.4527023e-11 6.239414e-13 -1.3664888e-27)
(9.364579e-11 6.6110005e-13 -2.7646399e-27)
(9.2790044e-11 6.2654596e-13 1.3052847e-27)
(9.1870615e-11 6.9975943e-13 1.2877253e-27)
(9.101267e-11 6.2398837e-13 -1.7991066e-29)
(9.0017452e-11 7.7936758e-13 -1.3462849e-27)
(8.9153517e-11 6.197026e-13 -3.9021201e-27)
(8.7987965e-11 9.5857103e-13 1.27196e-27)
(8.7091267e-11 6.1763768e-13 1.2589999e-27)
(8.5565761e-11 1.3249107e-12 -1.2752189e-27)
(8.4594046e-11 5.4737536e-13 -1.5795413e-29)
(8.2525056e-11 1.8552017e-12 0)
(8.1620799e-11 -4.2080175e-15 2.3599713e-27)
(7.9700219e-11 1.8947685e-12 -2.5234281e-27)
(4.4499942e-10 -5.5635094e-10 -3.2197139e-27)
(1.052651e-09 -3.0948528e-10 1.521708e-26)
(1.3482682e-09 -1.8683473e-10 1.9490517e-26)
(1.5161898e-09 -7.2150349e-11 4.172665e-27)
(1.5463465e-09 -4.0652468e-12 -4.5061398e-26)
(1.5129991e-09 3.754071e-11 4.3743724e-26)
(1.4375486e-09 6.1151039e-11 -3.5353784e-27)
(1.3404664e-09 7.3854388e-11 -7.7511007e-26)
(1.2322489e-09 7.9530479e-11 3.1028513e-26)
(1.1205554e-09 8.0435989e-11 -1.6198723e-26)
(1.0105726e-09 7.7998927e-11 -4.5096264e-27)
(9.0611432e-10 7.3203299e-11 5.66274e-26)
(8.0963012e-10 6.7032166e-11 9.7662476e-27)
(7.2245545e-10 6.0102e-11 -3.1331383e-26)
(6.4517724e-10 5.2981787e-11 -7.7951217e-27)
(5.7770631e-10 4.6062776e-11 1.5371135e-26)
(5.1948449e-10 3.9661497e-11 1.1464161e-27)
(4.6961714e-10 3.3941549e-11 -8.7508511e-27)
(4.2707667e-10 2.897268e-11 -7.0111871e-27)
(3.9080464e-10 2.4740773e-11 1.0583895e-26)
(3.5981768e-10 2.1178971e-11 4.5894613e-27)
(3.3325375e-10 1.8199246e-11 -9.6350178e-27)
(3.1037586e-10 1.5714335e-11 -8.9735594e-27)
(2.9057048e-10 1.3638359e-11 1.1419215e-26)
(2.733346e-10 1.1898583e-11 1.1510154e-26)
(2.5825622e-10 1.0433285e-11 -3.7333406e-27)
(2.4500031e-10 9.1923219e-12 -2.6554355e-28)
(2.3329147e-10 8.1365032e-12 -1.0587414e-26)
(2.2290157e-10 7.2361049e-12 -3.2223313e-40)
(2.1363885e-10 6.4648159e-12 9.0784004e-27)
(2.0534341e-10 5.8013932e-12 -3.3034891e-27)
(1.9788148e-10 5.2284033e-12 2.7096148e-27)
(1.9114126e-10 4.7311222e-12 -2.7321449e-28)
(1.8502993e-10 4.2970946e-12 -1.0823211e-26)
(1.7946808e-10 3.9164142e-12 1.1304137e-28)
(1.7438902e-10 3.5813292e-12 2.4176137e-27)
(1.6973594e-10 3.2851727e-12 4.9073909e-27)
(1.6546083e-10 3.0219769e-12 -2.6146367e-28)
(1.6152226e-10 2.7882598e-12 -1.6084719e-28)
(1.5788284e-10 2.5792359e-12 -7.4393492e-29)
(1.5451179e-10 2.3912738e-12 -2.164681e-27)
(1.5138187e-10 2.2223212e-12 4.312699e-27)
(1.4846931e-10 2.0697065e-12 -4.3522108e-27)
(1.4575312e-10 1.9317766e-12 -2.1626877e-27)
(1.4321533e-10 1.8061937e-12 -2.0703233e-27)
(1.4084014e-10 1.692066e-12 -2.0847332e-27)
(1.3861276e-10 1.5881826e-12 1.9123236e-27)
(1.3651961e-10 1.4943544e-12 1.8874975e-27)
(1.3454842e-10 1.4076844e-12 3.8495709e-27)
(1.3268878e-10 1.3294524e-12 1.8416298e-27)
(1.3093103e-10 1.2575343e-12 -1.9289249e-27)
(1.2926604e-10 1.1918592e-12 -6.8563577e-29)
(1.2768637e-10 1.1314524e-12 1.8133147e-27)
(1.2618463e-10 1.0772676e-12 0)
(1.2475458e-10 1.0263935e-12 3.6068977e-27)
(1.2338955e-10 9.8073947e-13 -3.6238328e-27)
(1.2208406e-10 9.3786113e-13 -3.5566415e-27)
(1.2083328e-10 8.9972564e-13 5.2402993e-27)
(1.1963298e-10 8.6424131e-13 -4.9670682e-29)
(1.1847909e-10 8.3225153e-13 -3.4493828e-27)
(1.1736666e-10 8.0215274e-13 -3.4163587e-27)
(1.1629183e-10 7.7627628e-13 1.6588228e-27)
(1.1525263e-10 7.5098294e-13 1.6229644e-27)
(1.1424448e-10 7.2959594e-13 -3.3030561e-27)